48
 energy: -91.153564963043 gnorm: 0.000157045533 xtb: 6.7.1 (edcfbbe)
C           -1.59101522284810        8.20429818320438       -4.35577249473475
O           -2.25057872490848        7.00508902382160       -4.69225091095965
C           -1.97672111720113        5.88434597478837       -3.98869674714016
C           -2.67472002166401        4.73443310402067       -4.37842926511443
C           -2.47019660850378        3.54338157061442       -3.72694325443421
C           -1.56413628364975        3.46193655446701       -2.66514247516695
C           -1.38394618408410        2.16070251039546       -1.99918577159869
O           -1.93800613816837        1.14237341926733       -2.33346351209286
O           -0.53030767993949        2.26029987632892       -0.95016464292655
C           -0.15885665640275        1.20468757835274       -0.15281123772470
C            0.31382245745133        1.55102190698058        1.11350309796901
C            0.74147316827998        0.55718186737582        1.95903918395264
C            0.70550320092817       -0.78919378149159        1.58854934132349
C            1.19131304350130       -1.75074568292003        2.59551357338755
O            1.72203877599490       -1.42177760822004        3.62790016725197
O            0.94372211680560       -3.03412739203850        2.24742733082233
C            1.34676351512527       -4.12212133180223        2.96809147721456
C            0.65439134907545       -5.30211508689170        2.67725767516843
C            0.99265930761472       -6.47782825075316        3.30577907247061
C            2.03218349170028       -6.47863656036418        4.23201918367433
N            2.39109480293942       -7.70446298744581        4.89220868810593
O            1.76166220276133       -8.70264918118077        4.60861479575566
O            3.30242753305493       -7.66984883806796        5.69220743995011
C            2.72848726725529       -5.31193898702543        4.52192612840727
C            2.39102015970913       -4.13109148918688        3.89119816456919
C            0.23328551303496       -1.13499085497353        0.30547328144853
O            0.22208856623578       -2.43469377381419       -0.04029869582090
C           -0.24843685934222       -2.80840204398917       -1.31762439269370
C           -0.18538876323036       -0.12059457021389       -0.55598886485440
C           -0.86905837597387        4.60506000926515       -2.27965418611876
C           -1.06964131296939        5.80511841444664       -2.93208926433088
H           -1.97376513696622        8.95325290343971       -5.04688021654809
H           -0.50782412299700        8.11525822579904       -4.48263421816387
H           -1.81554495894637        8.51083240284030       -3.32967278844290
H           -3.37117425331834        4.81424028655024       -5.19769405563246
H           -3.00437770969126        2.65264065407318       -4.01973388124395
H            0.33433862603333        2.58821059072757        1.40435362497339
H            1.11364385425280        0.79262230349187        2.94422914981807
H           -0.14267213334072       -5.26261780713638        1.95251267249215
H            0.46967521357750       -7.39868819331601        3.09825804800547
H            3.53257332108286       -5.34412807199049        5.24117578208607
H            2.92641784886240       -3.22470910258365        4.11865488287878
H           -0.18187680360509       -3.89483977020593       -1.34246273203175
H            0.37498572101506       -2.39070954767477       -2.11348145275985
H           -1.28762267662332       -2.50343641164986       -1.46864637852172
H           -0.54819717569348       -0.35920346809946       -1.54007020739112
H           -0.16517424577407        4.55280040671268       -1.46400584564688
H           -0.51631189044939        6.67377302607087       -2.61210526963092
