35
 energy: -53.066289928032 gnorm: 0.000255239547 xtb: 6.7.1 (edcfbbe)
H           -5.12562242859466        4.02778743674044        5.59839249619211
O           -4.57335705212404        3.39390855613861        5.13012809523331
C           -4.07020220731713        3.99074572394487        3.95510627910980
H           -4.89647431175309        4.30695007409348        3.29992621965539
H           -3.46974831712723        4.87985524654775        4.20193631178960
C           -3.20244909053109        2.96481478657853        3.23417483469428
H           -2.40218470722259        2.65027486651590        3.90580574806629
H           -3.81150971955682        2.08778951117985        3.00988048973414
C           -2.61035238434117        3.53659123871879        1.94391190426685
H           -1.99464702190710        4.41249832273622        2.17240487324177
H           -3.41590386375860        3.85609340508585        1.27474731553132
C           -1.79618349966741        2.55458752960943        1.26112929984775
C           -1.12286141385159        1.72326458638015        0.71031843103599
C           -0.33091340899050        0.75187680807842        0.05566216545899
C           -0.31692075657407       -0.56826631049626        0.50824844668977
H           -0.92154472006766       -0.84232333387809        1.36038348031194
C            0.46086139522352       -1.51230512420601       -0.12813996694667
H            0.44989577397900       -2.53502676688873        0.22003003841650
C            1.23678928646941       -1.17070095253153       -1.23581574647743
C            2.06122692107528       -2.17884248849222       -1.91250016727247
C            2.76947999775835       -3.12913955134475       -1.17530172468312
H            2.72289007561037       -3.10850445342344       -0.09652909785733
C            3.54847454007256       -4.07664881238133       -1.80476676610794
H            4.09978430072882       -4.80594479230244       -1.22932662385075
C            3.63019112764242       -4.09354505964532       -3.19802030429785
C            4.42453194615855       -5.06265216835928       -3.84985623215153
N            5.06887147214578       -5.84890822196242       -4.38091468896424
C            2.92465563739034       -3.14984190645298       -3.94636940264747
H            2.98732706785769       -3.16957778201281       -5.02466969720253
C            2.15269409266488       -2.20460180880289       -3.30505663982941
H            1.59456468799130       -1.48726467027018       -3.88842856910524
C            1.21435910166868        0.14908316548219       -1.68689766575149
H            1.82646636686535        0.43472602908969       -2.53021092642660
C            0.44638948511655        1.10056293368338       -1.04983179751099
H            0.44139162696427        2.12267398285060       -1.39954041219083
