48
 energy: -92.915103314114 gnorm: 0.000451192329 xtb: 6.7.1 (edcfbbe)
C           -7.56770443022716        0.14245779613476        2.46181292489273
C           -8.14977387055112       -0.38171973114801        1.15580315484088
C           -7.59954962625893        0.36872831068003       -0.06614730455749
C           -6.12637113714226        0.14376230176584       -0.22455870787454
C           -5.65357077621526       -1.06347397102039       -0.73322118644628
C           -4.30048646281391       -1.29667299419846       -0.85140178080791
C           -3.38195035225152       -0.32040878927638       -0.46166968561095
C           -1.94720325781986       -0.62299416527553       -0.61299574073567
O           -1.51121615079857       -1.66320543378008       -1.03545332551567
O           -1.18136728609048        0.42764050859094       -0.21036449598902
C            0.18427895775122        0.46701821636002       -0.23161667805729
C            1.02882749432352       -0.53666606346723       -0.70128397033934
C            2.39542235685388       -0.35141941866301       -0.66082747077013
C            2.96753191182585        0.82053314849490       -0.16496865380693
C            4.43077178422744        1.02969086834263       -0.13417628020335
O            4.98841027749385        2.06926819273710        0.07540800310139
O            5.07792030414005       -0.14179905216301       -0.40669567907445
C            6.43898864439717       -0.26782152273114       -0.41114037884359
C            7.31398060972028        0.55706664724135        0.28763587207291
C            8.66850535573645        0.29033136683579        0.23114715390928
F            9.50284871427820        1.08521403320831        0.90648222863440
C            9.19699804867782       -0.78021752443047       -0.49499084762678
C           10.58777197145828       -1.03499768811407       -0.53576741447260
N           11.71266296960803       -1.24267845649345       -0.56950031355242
C            8.28362306582929       -1.59075140950046       -1.17722577336385
F            8.73721175096333       -2.63109750997689       -1.88410502005979
C            6.92814300974052       -1.34981242001986       -1.14424321385887
C            2.09829692151015        1.81413372180008        0.29900376972398
F            2.57656208976547        2.95374245754312        0.80356730573044
C            0.73034662013659        1.64734930425230        0.27292946289735
C           -3.84778787009280        0.89085817499312        0.04720394279542
C           -5.20549467043827        1.11253316108188        0.16210438138420
H           -7.99221121834630       -0.39378297347473        3.30712391053657
H           -7.79001339797659        1.20059353349469        2.58211102305639
H           -6.48781094835561        0.01269575293718        2.48015774838224
H           -9.23595342873744       -0.27218226174391        1.17278777348482
H           -7.92127182257255       -1.44473360040264        1.05717467734154
H           -7.80431899768569        1.43468098129566        0.04770272299642
H           -8.11864093563340        0.01270860686460       -0.95886770785297
H           -6.35813929706200       -1.82219969772678       -1.04124380712254
H           -3.92691074618081       -2.22940844192694       -1.24582436724087
H            0.61937023482253       -1.45239061339889       -1.09298072569148
H            3.04292810774976       -1.13113403826576       -1.02761528633794
H            6.96742249577941        1.40168872807216        0.85961642215900
H            6.25037223124599       -1.99385655507195       -1.67990515920206
H            0.08444830827674        2.42768627980692        0.64142089340048
H           -3.14588031906968        1.65153853161433        0.35046197434662
H           -5.55995723396485        2.05349370808432        0.55711562934237
