51
 energy: -72.062922353455 gnorm: 0.000082239429 xtb: 6.7.1 (edcfbbe)
H           -3.74118873467167       -8.45531090166859        0.26733383398060
C           -4.20730928083220       -7.53326308179533        0.58300107293021
C           -3.48650292949009       -6.35881140550607        0.61959207273035
H           -2.44245474552107       -6.36601736413030        0.34382885703453
C           -4.07977198082044       -5.16447565161679        1.03282549319363
C           -3.30731710782746       -3.91770344717174        1.06470580589689
C           -2.39401300326310       -3.61886131461128        0.05900148942558
H           -2.26699169296781       -4.30245568427327       -0.76771962560696
C           -1.66439893034576       -2.44454323307571        0.07278713535969
H           -0.97568208052785       -2.24843587829234       -0.73384762273560
C           -1.82659075639100       -1.53546909269442        1.11407121609473
O           -1.16252076640741       -0.35848929916395        1.23457067705334
C           -0.21817601832548       -0.00371633971727        0.24506054646158
H            0.57293999603592       -0.76464379444869        0.18666432859989
H           -0.70733912563113        0.06821522764991       -0.73672749392942
C            0.38459258196646        1.34403776968956        0.62554480546464
H           -0.41814273984684        2.07962383243105        0.69596086653248
H            0.84319843775619        1.25637772366897        1.61169492333760
C            1.42243846969120        1.79535898138270       -0.39777954506128
H            2.21276836413269        1.04390844397030       -0.46573095173204
H            0.95194456455714        1.86849936579284       -1.38122738770006
C            2.04069738924683        3.14314438263271       -0.03473786614582
H            1.25350093500476        3.89732200831268        0.02851853717257
H            2.51058994542070        3.07260189078354        0.94848181693561
C            3.08095883682625        3.58127140700718       -1.06303840159991
H            3.86548720302089        2.82359984862965       -1.12640146302949
H            2.60905176737599        3.64936832536588       -2.04600203621410
C            3.70926396513870        4.92764567486743       -0.71210042628143
H            2.92674322799292        5.68696807950337       -0.65103385056289
H            4.18215136685388        4.86098276598177        0.27003443142670
C            4.74889633339024        5.35494538241455       -1.74587375767754
H            5.53045029657376        4.59397875252056       -1.80762438126681
H            4.27506524425202        5.42149031214279       -2.72810110670237
C            5.37896128652271        6.69988507462133       -1.39597856234243
H            4.60701175805055        7.46988241434828       -1.33793608370079
H            5.86659928288647        6.64122997945517       -0.42081172350530
C            6.40885027078385        7.11364669898480       -2.43640514204391
H            7.23322422889310        6.39506806009907       -2.49573287568721
H            5.95505288439918        7.23954769512887       -3.42517944199950
F            6.96694030844044        8.32509549836468       -2.10318012911917
C           -2.73874625159528       -1.83075823273992        2.13072813626308
H           -2.85279688377461       -1.12212573426832        2.93581037291622
C           -3.46832286241038       -2.99692989333496        2.10168663202780
H           -4.15459366621930       -3.21312796530943        2.90694954829377
C           -5.42335104833726       -5.18033712914388        1.41151620427213
H           -5.90037222840558       -4.26072008085350        1.71611437297951
C           -6.15603166388490       -6.34759186993057        1.37603032693571
H           -7.19733148238949       -6.35241316997881        1.66358996260548
C           -5.55120320427304       -7.53497583057984        0.96033410504785
C           -6.29598254855096       -8.73411728264059        0.92028161077231
N           -6.90027721249465       -9.70839191880574        0.88645069290494
