47
 energy: -64.834090092372 gnorm: 0.000162964386 xtb: 6.7.1 (edcfbbe)
H           -3.77665278084327       -6.96619360159332        2.72065400232502
C           -3.85132453190833       -6.20774307514199        1.95497168419667
C           -3.14739910140638       -5.02730020641158        2.06483344804596
H           -2.52722710355049       -4.85489601480571        2.93200570068532
C           -3.24539732059697       -4.04019471701994        1.08315803718549
C           -2.49546384014976       -2.78419242814337        1.20856042557957
C           -1.18436381220760       -2.78079095510011        1.68016805453417
H           -0.70550967528691       -3.71543288143862        1.93387784558341
C           -0.48216506780895       -1.59789387499628        1.79773924946807
H            0.53585075405388       -1.61486408904957        2.16034099031099
C           -1.06669436254839       -0.38299511385219        1.46019690396916
C           -0.28490892785738        0.89324183833045        1.55544677423291
H           -0.96031186273092        1.73387993179603        1.72701265930899
H            0.41313003369446        0.83937376740521        2.39368282932747
C            0.50451869789625        1.13733769818754        0.26348557604359
H            1.16133233004824        0.28390905393628        0.07994715732823
H           -0.19226777309820        1.20270894092193       -0.57536103648935
C            1.33747785153304        2.41365319520776        0.33919094247336
H            0.67834337091145        3.26765300569489        0.51312992077200
H            2.02172548870905        2.34732193534690        1.18856100013662
C            2.14260972357284        2.64705112965867       -0.93674287122817
H            2.79029164226929        1.78588237050765       -1.11629461780418
H            1.46004099834324        2.72844556676990       -1.78590969153368
C            2.99762573243919        3.90895424881118       -0.85053002341901
H            2.35085795229118        4.77521994886300       -0.69043707798090
H            3.66537698105134        3.83221719511976        0.01070674336606
C            3.82733171218227        4.12240878901516       -2.11344492031900
H            4.47392721989767        3.25730382985060       -2.27309291687268
H            3.16144625231646        4.20492682820115       -2.97599620852519
C            4.69394843005640        5.37711430303742       -2.02149509774477
H            4.06504560097300        6.26244712409766       -1.91203452624336
H            5.34352547639178        5.30899162591440       -1.14651614172836
C            5.56059586647002        5.56001724939420       -3.25844842707022
H            4.96542469661367        5.52462832609068       -4.17698530024785
H            6.13010840475768        6.49437751942787       -3.21726244875944
F            6.48471841116287        4.54573357837077       -3.35343797274556
C           -2.37384504025995       -0.38684387323863        0.98958040108902
H           -2.84678890435263        0.54839170200920        0.72536306247070
C           -3.07890526529046       -1.56757676283278        0.86199630238392
H           -4.10191815113765       -1.54536675330365        0.51525919469322
C           -4.07011211895078       -4.26917345932260       -0.01918367403614
H           -4.13999563131633       -3.52135201370452       -0.79522537465047
C           -4.77611679492566       -5.44692517382597       -0.14273243715988
H           -5.40892076218349       -5.62190356273542       -1.00061677158480
C           -4.67161302675057       -6.42569632425018        0.84696635983547
C           -5.39493002934819       -7.63289973076888        0.72675824461654
N           -5.98242174313380       -8.61293609043571        0.62818402617584
