48
 energy: -95.374452133548 gnorm: 0.000137171082 xtb: 6.7.1 (edcfbbe)
C           -4.85614466929743        5.79165055027512       -5.09843877944294
O           -4.74953847650871        4.39909588648510       -4.90366881164725
C           -3.91772358361547        3.93602761972860       -3.94409735625776
C           -3.13672273129838        4.73112829265486       -3.10635357917620
C           -2.33218697577907        4.12015438474258       -2.17157006452530
C           -2.27350092126596        2.73444272673688       -2.02634608993233
C           -1.36421126011103        2.22606415117437       -0.98952055254183
O           -0.58840378173169        2.92036776477130       -0.37810846345275
O           -1.51895824256231        0.89591773435579       -0.77567922322410
C           -0.74065209508379        0.14517444200921        0.05320088850877
C            0.51366838417583        0.50673062880619        0.54121832125374
C            1.21999766134578       -0.37926846483728        1.32787679617300
C            0.71506221516525       -1.63779364073149        1.65740635975860
C            1.47179520867857       -2.59053898352345        2.49858591155306
O            1.03283304303088       -3.58662347586718        3.00180842860432
O            2.75798961951852       -2.16598861630376        2.64662442260351
C            3.71493588326660       -2.88672605946128        3.31396879507900
C            3.71833970902895       -4.27515822252579        3.42455520997533
C            4.76605627202040       -4.90024685983302        4.07108984837380
C            5.80527921747953       -4.14432492878756        4.59839247228238
N            6.89821207953126       -4.80355563311795        5.26478444489258
O            6.86773619646978       -6.01351110267676        5.33591929792612
O            7.78547894918229       -4.10808643480119        5.71238985522047
C            5.80923988776505       -2.75743953876301        4.48598903756743
C            4.76450071062514       -2.13226639811394        3.84400329149038
C           -0.54761164863628       -1.97532262160855        1.15831877413204
F           -1.08316012517611       -3.17207438097768        1.41805261448010
C           -1.26778405423877       -1.10734480265533        0.36639090210405
C           -3.06119001432763        1.92651466423220       -2.87924282387759
O           -2.97563456852078        0.58872243202673       -2.74296203297293
C           -3.72719374667452       -0.24169683178260       -3.59863455578330
C           -3.86753605593501        2.54703033951749       -3.82176122835771
H           -5.56946579105789        5.91988622850375       -5.91074675285828
H           -3.89614828882067        6.22981638148384       -5.38662063556408
H           -5.23330057464910        6.29307162606144       -4.20236163636513
H           -3.15107123783269        5.80584023394143       -3.17678110099606
H           -1.71661239756576        4.71351839298855       -1.51272474501497
H            0.92713538557914        1.47426152067897        0.31141623015688
H            2.18991785359163       -0.09521124216055        1.70288759956146
H            2.91013547322244       -4.85908934257947        3.01717970208454
H            4.79261039071231       -5.97458194160265        4.17035329873176
H            6.62985067771329       -2.19507282447699        4.90408270258082
H            4.73915095520821       -1.05948714030654        3.73844197641894
H           -2.23385542854184       -1.39136108396863       -0.01764304455284
H           -3.47950098020679       -1.26034068887764       -3.30454591269321
H           -3.45358572875622       -0.09162439217335       -4.64718832692553
H           -4.80187401758671       -0.07969165671042       -3.47383766916558
H           -4.48636837755469        1.97901130800132       -4.49609379616350
