51
 energy: -94.319361262929 gnorm: 0.000233967683 xtb: 6.7.1 (edcfbbe)
C            2.50548981317973        2.85176293484628       -4.25037337887511
C            3.09167594503314        1.73784594547829       -3.38865255594272
O            2.66317917660882        1.81156666512751       -2.04107416688961
C            3.20081496847662        2.70796877267472       -1.19284418286514
C            4.25204215864923        3.55350301506087       -1.51932102805831
C            4.79411525818902        4.44507800311922       -0.59437163721843
O            5.81504015995428        5.20375934632048       -1.05762012958766
C            6.42632112730013        6.12559210605396       -0.18365535169153
C            4.27465338445180        4.50150494685626        0.69758008219919
C            3.23256554803332        3.66541086758294        1.02824722109507
C            2.67464029509639        2.76758188743874        0.11922334678953
C            1.56808873196063        1.93906060803630        0.62614287819180
O            1.18894226073603        1.96586599036315        1.77327712072787
O            1.00866409581844        1.17327171448790       -0.33673574715557
C            0.01301718208959        0.25974576568642       -0.12592902193946
C           -0.31034272936535       -0.31062889075406        1.10227057349690
C           -1.31046433970672       -1.26072652589601        1.17096190965553
C           -1.99596567067273       -1.65658756177616        0.02473304414510
C           -3.06943690927262       -2.66676412465764        0.04949144319484
O           -3.70217905073342       -3.01894083629050       -0.91228882490677
O           -3.23783733574010       -3.17578833039093        1.29967748685366
C           -4.19412181000677       -4.10219261396428        1.62132518049182
C           -5.40334156075920       -4.25672752410652        0.94716482208247
C           -6.31153285987356       -5.19682290701144        1.39178941016242
C           -6.01744132473994       -5.97321612547348        2.50555699942538
N           -6.96968544204078       -6.94987520163479        2.96412629763910
O           -8.00657912687979       -7.06087159865579        2.34499793039256
O           -6.67827441231459       -7.60318928186527        3.94393869074644
C           -4.81474544914429       -5.81689856089127        3.18818260535731
C           -3.90708327394587       -4.88253799891001        2.74472241592885
C           -1.66287972694095       -1.08279268954956       -1.20479918539671
C           -0.66880697012911       -0.13597470181133       -1.27984445535828
H            2.80557199983800        2.70962100575762       -5.28485010681470
H            2.84697269873535        3.82749631214442       -3.91445472508231
H            1.42031744722271        2.82977834828867       -4.19128717799030
H            4.18604171265377        1.72553566726566       -3.45018758804270
H            2.71771538954825        0.76890666504855       -3.73139295859984
H            4.69752799416170        3.55175246706473       -2.50012453286988
H            7.20842202108737        6.60837620649475       -0.76708159655351
H            6.87507742879923        5.62263143546971        0.67795923517404
H            5.71482249022428        6.88068444339942        0.16332337970535
H            4.66953744699216        5.18022653323746        1.43487568572992
H            2.81248312026152        3.68722353776779        2.02238625123443
H            0.21031317215222       -0.00824396252993        1.99547249038602
H           -1.56139543459122       -1.70035590978913        2.12328765955282
H           -5.62723428403361       -3.65574459270890        0.08191415707844
H           -7.25471295215644       -5.33709274904362        0.88624450680381
H           -4.61287732680155       -6.43171771076261        4.05173773644143
H           -2.96636359057017       -4.73642392839287        3.25112999035415
H           -2.19958724479156       -1.39821493479852       -2.08642535824391
H           -0.39114420207256        0.31659807059239       -2.21839684093494
