37
 energy: -52.397067106521 gnorm: 0.000115288664 xtb: 6.7.1 (edcfbbe)
H           -8.46767175026474        0.83627859717603       -0.04236002156073
O           -7.51419796227339        0.66156518426140       -0.05752309075812
C           -6.85186944275581        1.78877961041640        0.26779817544699
O           -7.43894485521728        2.81264538054773        0.52357234796086
C           -5.38896279982793        1.63123193753500        0.27421048805831
C           -4.77689435742899        0.41967918659887       -0.03134116804845
H           -5.38649653886455       -0.43447251342999       -0.28134901541972
C           -3.40106223689557        0.30236862180717       -0.01718318766788
H           -2.95367829298215       -0.64899550632117       -0.25809608026217
C           -2.60835398131584        1.40377788219833        0.30531383499046
O           -1.25804727306829        1.40120704036149        0.34905184061493
C           -0.55704391811495        0.20901230261179        0.04970492932503
H           -0.84540807234265       -0.58536854114935        0.75187800730753
H           -0.79322300695096       -0.12200161607741       -0.97102265255444
C            0.93513056404427        0.49734779908529        0.17208281431960
H            1.19273000314924        1.30466557426171       -0.51521824250781
H            1.14266108260459        0.84429126680504        1.18550805923806
C            1.76955779922197       -0.74175707961562       -0.13895668281951
H            1.49659187820721       -1.54414890750260        0.55061239013871
H            1.54300574467439       -1.08547773959977       -1.15108966450570
C            3.26704014450029       -0.46735103051413       -0.02442297683936
H            3.54131164809526        0.33408734792974       -0.71392457447527
H            3.49555235772707       -0.12485544889663        0.98720703950351
C            4.09704568167141       -1.71000670625901       -0.33750537215440
H            3.82268848514710       -2.51051071042888        0.35369783732103
H            3.86456719009393       -2.05355315905432       -1.34834093980710
C            5.59685399611281       -1.44582693495756       -0.22984765656183
H            5.87278314785442       -0.64685551491397       -0.92172981337615
H            5.83111422159221       -1.10336473279967        0.78060567459225
C            6.41402576429871       -2.69288793476554       -0.54432675457288
H            6.16725875983966       -3.49510021126647        0.14785156294658
H            6.20804392471763       -3.03890576418308       -1.55496982148093
H            7.47826588287122       -2.48492071837616       -0.46313519161165
C           -3.22528863280063        2.62303166499855        0.61299251174242
H           -2.59636257357117        3.46351186462401        0.85999644857897
C           -4.59389590140592        2.73400655285392        0.59741245870133
H           -5.07882668034235        3.66887295603936        0.83284648619777
