53
 energy: -95.777252049145 gnorm: 0.000354565263 xtb: 6.7.1 (edcfbbe)
C           -1.50610428363855       -7.96736228793308        4.88718569789876
O           -2.44975600560194       -7.48743925678337        3.95631288098386
C           -2.23046969665846       -6.29308207754646        3.36030415846987
C           -1.12592750849101       -5.47412703645516        3.58983485186851
C           -1.02356649476373       -4.27814068908408        2.91317685322284
C           -1.98857514743971       -3.85912251666556        2.00015977537878
C           -1.84197677882744       -2.59046100894760        1.27544348308173
O           -2.49661165351188       -2.21168476279701        0.34239474836724
O           -0.83116653609886       -1.84306368863082        1.82772509117086
C           -0.42058811798597       -0.65046351945107        1.29809286675956
C           -0.44525894982661       -0.33908049576572       -0.05868694206913
C            0.05358151159270        0.87379001061609       -0.48813790269344
C            0.58838253450373        1.80404716486265        0.40183333479409
C            1.10878814083094        3.11792559676199       -0.05923709038992
O            1.22043040359094        4.09217524682261        0.63468286246548
O            1.42730138498065        3.04429630162017       -1.36795896062093
C            1.94903666215761        4.07524582312731       -2.12282137737720
C            2.25730917303576        5.34550925452995       -1.65640572475587
C            2.78705783909128        6.29090021962935       -2.52129172899334
C            3.12833955692272        7.66365783402687       -2.03515881421233
C            3.00340142967940        5.94561247237009       -3.86106491874792
C            3.54462481989651        6.90371834144814       -4.74566450868029
N            3.98098134284439        7.68194638068565       -5.46704804819367
C            2.69418237675853        4.66373866975492       -4.34167226834818
C            2.94105828925546        4.31864694714988       -5.77624280019453
C            2.16843427261695        3.74150821178929       -3.45908719642286
C            0.60443668034774        1.46590816709064        1.75672166691304
F            1.13069785699932        2.30109123047517        2.65936956192810
C            0.11376011560165        0.25821798062484        2.20805450491085
C           -3.11167178119731       -4.69027977037170        1.76581187689613
O           -4.02841719009170       -4.25220582177554        0.89026194439107
C           -5.17480087720277       -5.03186879685497        0.64002174364245
C           -3.21079448877640       -5.89124870983998        2.45371394085817
H           -1.89232963373447       -8.92645513572278        5.22794335285646
H           -1.40788861406981       -7.29218139720663        5.74234307968963
H           -0.52628803685926       -8.11574899475343        4.42358958070796
H           -0.35171726939092       -5.75865834613132        4.28287302210993
H           -0.16762176118854       -3.64586809397352        3.08673348404366
H           -0.86009792222027       -1.03530482131476       -0.76797351227345
H            0.02811917589944        1.11615623238308       -1.53849547248584
H            2.08903405233376        5.60445649027200       -0.62478289093068
H            2.88015549722496        7.77351596231776       -0.98314400320211
H            2.58636845990144        8.41607570837541       -2.60738804627082
H            4.19202753660438        7.85965756562355       -2.16897256391617
H            4.00728046880201        4.36626494982645       -5.99737152669320
H            2.44252346471671        5.03167830286510       -6.43175504074558
H            2.58130760238133        3.31835282005872       -6.00185860102117
H            1.92034179085942        2.74484367043349       -3.78959382217266
H            0.14527365648956        0.01875867805728        3.25867108203246
H           -5.75439216426231       -4.46613662236297       -0.08714640649465
H           -5.76924461026021       -5.17456711187583        1.54770139545187
H           -4.91321745197977       -6.00654427952688        0.21699347177284
H           -4.04578312178048       -6.55661099181705        2.31102985520666
