46
 energy: -66.025757748028 gnorm: 0.000113528796 xtb: 6.7.1 (edcfbbe)
H           -2.88741861512218       -7.76747281186806        0.17453885033682
C           -3.36903593406547       -6.84692531886281        0.47067649036848
C           -2.66691156261775       -5.66071876405888        0.48667641930383
H           -1.62192820572150       -5.65651506412034        0.21437426567948
C           -3.28043551970531       -4.46837124377942        0.87502640808284
C           -2.52790893858208       -3.20898016310605        0.88564337379453
C           -1.61956485868236       -2.91244102378891       -0.12510302304851
H           -1.48093919763081       -3.60812808867740       -0.93977507366047
C           -0.90975915201144       -1.72581898011851       -0.13159436296207
H           -0.22398018798057       -1.53206656149883       -0.94135585003463
C           -1.08785478370359       -0.80218879417868        0.89387660602565
O           -0.44495096833938        0.38887795275952        0.99408758670082
C            0.48630197089734        0.74912912690774       -0.00519809850143
H            1.29817479410410        0.00949128127619       -0.05185091521562
H           -0.00721765808763        0.78916940109140       -0.98667965245148
C            1.04978976629215        2.12066351689317        0.35007990622932
H            0.22338608101489        2.82973998267452        0.41923501465267
H            1.52038499232664        2.06165161145537        1.33267976121561
C            2.06147396784582        2.59467743704935       -0.68886058339192
H            2.87954972301825        1.87313792554589       -0.75272777889105
H            1.58026139169657        2.63574675291922       -1.66905093683554
C            2.62735997311362        3.97086761490549       -0.34706931897241
H            1.80941858508336        4.69133430349160       -0.28019719067768
H            3.11231664345111        3.93008014586855        0.63051577505221
C            3.63423363410465        4.44409903179232       -1.39286598078410
H            4.45337291001471        3.72328387315247       -1.45600390188740
H            3.14750027569461        4.47856732751824       -2.37087532824276
C            4.19598179772715        5.82292017033988       -1.05701539984865
H            3.38023689368297        6.54670831465657       -0.99476162213797
H            4.68731569446655        5.79216440605011       -0.08192652212499
C            5.20322188469201        6.28553493823137       -2.11728476674794
H            6.03722610962317        5.58032546467430       -2.18103969367185
H            4.72237409354910        6.34010279076066       -3.09850100164687
C            5.73003626622212        7.58634369119333       -1.79510387573327
N            6.13726949846343        8.61941409492358       -1.52406973297003
C           -1.99423541004474       -1.09538418080906        1.91614442786598
H           -2.11988203624500       -0.37501515262789        2.70897281538306
C           -2.70412356939186       -2.27394002527805        1.90720892682097
H           -3.38677100816267       -2.48803741465237        2.71607867785203
C           -4.62483418786320       -4.49790108748883        1.24972229013578
H           -5.11709682674791       -3.58013019844128        1.53507367464978
C           -5.33902367926202       -5.67702612787695        1.23430253706051
H           -6.38113913411742       -5.69273049009157        1.51845518536908
C           -4.71403739351899       -6.86244438563027        0.84366810410561
C           -5.43968365694901       -8.07385940066130        0.82452782603343
N           -6.02847446253474       -9.05796587851791        0.80733568772006
