44
 energy: -83.916257286214 gnorm: 0.000157621306 xtb: 6.7.1 (edcfbbe)
C           -1.40756893198523        4.82281070672873        1.76088256999766
O           -0.33276655507331        3.97671208392832        2.09677965033198
C            0.50177345490351        4.33270197471974        3.09738762839719
C            0.34961949561941        5.49855672835605        3.84807375143272
C            1.24308629939252        5.82287766153307        4.85164015428635
C            2.31953538047282        4.99751890313750        5.13243398052578
C            2.48447741731874        3.84225095966308        4.39907423018755
C            1.59179200594919        3.48664692622562        3.38776338291839
C            1.88805515275761        2.21882640141971        2.68371541237664
O            2.91530485991352        1.60519764855617        2.84276392422485
O            0.88003252335333        1.83274988835488        1.87783376976771
C            0.87525386972875        0.71751908361050        1.08251107219734
C            1.93015239089271       -0.17474900325110        0.91271518678145
C            1.77229981922240       -1.25085117566558        0.06200470540254
C            0.57895560079093       -1.45482073046983       -0.62813607885149
C            0.48309058598379       -2.62561991515674       -1.51928873355216
O            1.34503472601895       -3.45220783063205       -1.66499842963551
O           -0.70243115306887       -2.64193867006655       -2.18854272901714
C           -1.05454849180417       -3.65027826855775       -3.04840317556618
C           -1.89669626069660       -3.27857500901700       -4.09870165958468
C           -2.34593634172214       -4.22548921686474       -4.99112693000452
C           -1.95123378752211       -5.55027381297220       -4.83235759103758
N           -2.41776503761050       -6.54381910090826       -5.76406430495469
O           -3.14629123945412       -6.17524014118694       -6.66117845180403
O           -2.05681944233731       -7.68885834137084       -5.59515542008086
C           -1.11883342989612       -5.92727929437708       -3.78598283065932
C           -0.67020923099477       -4.97937088988938       -2.88811848326889
C           -0.47503439310045       -0.55637859855681       -0.45271734995047
C           -0.32534794214737        0.51682954371937        0.39488847123100
H           -1.90942278670984        4.33703462122758        0.92550449075915
H           -1.06031761990449        5.81143401766107        1.44520231731706
H           -2.11228381080800        4.92950969178814        2.59143211324746
H           -0.47495778475595        6.16525161446640        3.65260115345579
H            1.09413445602201        6.73175189640510        5.41545917519979
H            3.01795043772866        5.25440532450004        5.91289570777881
H            3.31183748569975        3.17528634327849        4.58826596713649
H            2.85852636318921       -0.03040861155499        1.43917447525146
H            2.57881601511332       -1.95347520490645       -0.08243821962195
H           -2.18315392093521       -2.24338958514923       -4.19419034707627
H           -2.99455458155898       -3.96177629639641       -5.81225692665320
H           -0.83428678702604       -6.96352418530315       -3.68603758367251
H           -0.02253741559932       -5.26636834418775       -2.07670810124719
H           -1.40380951655447       -0.70727668244070       -0.97969821975427
H           -1.12293187880557        1.22610688960786        0.54910827578596
