51
 energy: -100.887669841121 gnorm: 0.000175617368 xtb: 6.7.1 (edcfbbe)
C           -4.67826363488392       -5.79189836964208       -4.33192888425536
O           -4.72673990266302       -4.41189398546591       -4.61461905450627
C           -3.97263676913714       -3.56602521809675       -3.87525512722080
C           -3.12860916723674       -3.94696920835002       -2.83345930758592
C           -2.41348877930418       -2.97998909565710       -2.16011624336585
C           -2.50363842183123       -1.62977778062249       -2.48834500100810
C           -1.71162710321225       -0.62207157045946       -1.76999850099115
O           -1.56261634150269        0.52960222614514       -2.07614444860531
O           -1.15265409373366       -1.16738334418805       -0.64178394875762
C           -0.29289826022812       -0.44974214772721        0.15051313413916
C            0.64742620122937        0.44748974777360       -0.34591690473112
C            1.49508406001212        1.07635036414468        0.53875999013471
C            1.44372608512569        0.83232775724672        1.91142056916777
C            2.35792923863427        1.51129208647035        2.83877907853170
O            2.43627333059746        1.34753485017246        4.02498287372973
O            3.13924697069244        2.41919741825453        2.15994204812009
C            4.11960496110727        3.15621307862793        2.75061224172417
C            4.47152949045672        4.32514671089476        2.07185654065583
C            5.48490201245753        5.11789826540309        2.56061842596377
F            5.81052997959804        6.23366982180246        1.89716405031677
C            6.18342026799646        4.79314279994983        3.72855301589217
C            7.22167823110522        5.61473901345458        4.22406469252925
N            8.06421462742910        6.27942688333649        4.62274220421193
C            5.80566353391013        3.61502525584153        4.37826132613440
F            6.45245313952744        3.25880423194052        5.49345119874799
C            4.79756955198097        2.79506099583916        3.91146890725813
C            0.49501665981979       -0.09280595217262        2.41026785099532
O            0.47722152315792       -0.30813467278366        3.73235885639076
C           -0.45732261080981       -1.21118781989322        4.27780560529790
C           -0.36269213369164       -0.71947614638900        1.51164732591715
C           -3.36086341709923       -1.24109629936710       -3.54698322323115
O           -3.43421268557603        0.06795336437802       -3.82945726391785
C           -4.27983171533945        0.50618916185336       -4.86735769256447
C           -4.08065017965248       -2.21892277074084       -4.21859350284906
H           -5.35578291653541       -6.26065211158601       -5.04353191488262
H           -5.01863490060683       -6.00437673513605       -3.31409696710051
H           -3.67071772093501       -6.19448320764200       -4.47242716222503
H           -3.02269156406452       -4.98030063411847       -2.54741576660849
H           -1.75574812392329       -3.27293981303275       -1.35736674823756
H            0.70436126522944        0.65349987567016       -1.40101514783941
H            2.22529889202024        1.77453504204742        0.16353647667206
H            3.95177514623439        4.60319676569943        1.16975708636235
H            4.54653357036066        1.90266407696385        4.45990675370864
H           -0.27212678762741       -1.20258107255778        5.35032930512057
H           -0.30906511519873       -2.22432773375806        3.89181718284399
H           -1.48549015284410       -0.89100641457424        4.08420252641247
H           -1.10334919694518       -1.42844963270425        1.84336795766310
H           -4.16255519552797        1.58793952208989       -4.89645018126274
H           -5.32644916888792        0.25880824164895       -4.66450779341949
H           -3.98414520060098        0.08262375339520       -5.83195918209858
H           -4.74599747909882       -1.97383957435579       -5.02946725735944
