41
 energy: -81.860150763152 gnorm: 0.000069242713 xtb: 6.7.1 (edcfbbe)
C           -4.78148625285813       -0.50501276900983        6.89100578972838
O           -4.29841260253448        0.79690645218852        7.13987439664777
C           -3.39988687525045        1.28927150199265        6.28833363014392
C           -2.83631360551256        2.53961358959451        6.38216710666507
C           -1.92684703378819        2.79303736433931        5.35216432045191
C           -1.79114597597667        1.74635834877972        4.47348146413989
C           -0.94874280919491        1.68237883864107        3.30020458762646
O           -0.22839955216149        2.57044431742265        2.91715225681243
O           -1.07851485839453        0.46303249396149        2.70644734470696
C           -0.46614745389287        0.11027048087151        1.53051149702114
C           -0.35148100481513       -1.26374429199781        1.31236342460384
C            0.20145349358600       -1.72950429082855        0.14196150028373
C            0.64844433358045       -0.83250141294577       -0.83047942282810
C            1.21654325290913       -1.38626723829901       -2.07495068340817
O            1.30573256961369       -2.56045974577401       -2.32345355881135
O            1.64615182514140       -0.39805255980870       -2.90288076087244
C            2.14644873346587       -0.62846266062909       -4.15835676439225
C            1.78766547593819       -1.70976281526136       -4.95960910968431
C            2.31211851744863       -1.81290770326216       -6.23256520549875
C            3.18430551825312       -0.83977045785422       -6.70357854847954
N            3.72241269357178       -0.95081920205801       -8.03438337199356
O            3.38718236834131       -1.90733902314769       -8.69986964335333
O            4.47694956121191       -0.07888985556837       -8.41050161618267
C            3.54132820407200        0.24559619946448       -5.90934475870155
C            3.02153422894702        0.34871124811404       -4.63902810254102
C            0.52972996810677        0.53677153493446       -0.60519078909764
C           -0.02603680071599        1.01171513864866        0.56673015012017
S           -2.80564984959882        0.40607437742772        4.91772148048452
H           -5.49600240973759       -0.71982269044191        7.68251485644113
H           -3.96677904829545       -1.23525037831482        6.91523432776087
H           -5.27664304294489       -0.55830079453466        5.91651597250601
H           -3.08357083566584        3.22848325501037        7.16730251786330
H           -1.37601294801342        3.70860067891167        5.23650695164341
H           -0.70663373703261       -1.94024011033554        2.07365086441010
H            0.29863645615361       -2.78802644816924       -0.04420402813339
H            1.11296996070661       -2.46371354342171       -4.59025303579633
H            2.05043567979418       -2.64080876419233       -6.87355879088760
H            4.22001680500536        0.98735868969983       -6.30132281067808
H            3.27698037788731        1.17771062831791       -3.99857259414480
H            0.86864609039890        1.23480527769798       -1.35406098815695
H           -0.11096941774945        2.07250633983592        0.73434014359092
