70
 energy: -147.274144070054 gnorm: 0.000097512374 xtb: 6.7.1 (edcfbbe)
C           -8.00041097287376        6.66492108456079       -8.95009391069252
O           -7.88223218518177        6.81149945829613       -7.55246216078902
C           -6.97567873729339        6.05769596967808       -6.89196155326641
C           -6.12182845937666        5.12753046351768       -7.48371244921887
C           -5.24661233418559        4.42836038888637       -6.68483041448361
C           -5.17911665969184        4.61566855677870       -5.30392274078675
C           -4.19904341404989        3.78881877951127       -4.58786193525333
O           -3.51645332078474        2.94728682235360       -5.11955273762501
O           -4.12857979114871        4.09186327381348       -3.26525676475123
C           -3.35921701949296        3.42703497262755       -2.36130689286208
C           -2.79950954281639        2.16788353035971       -2.55011663036689
C           -2.07020827109687        1.60099523275310       -1.52191953129677
F           -1.56854234518299        0.37509939597374       -1.72102603348908
C           -1.87611842624929        2.22542980967958       -0.29103882108622
C           -1.12970512794658        1.57276058890632        0.82666947259050
O           -1.45955957269271        1.62199955375996        1.97927606721832
O           -0.04924249618855        0.94581242495118        0.34240975296409
C            0.76488998243484        0.14217162696816        1.12027646938838
C            2.09238764474409        0.05202696030119        0.71467435904707
C            2.96159135715041       -0.78198601359276        1.38571828678766
C            2.52684391694247       -1.53296037796085        2.47705368821296
C            3.44781680622428       -2.43241065923527        3.18615172015333
C            4.36061003171227       -3.21329885162605        2.47782893382793
C            5.21578626508028       -4.07221464223977        3.13767887728069
C            5.17119337490513       -4.15925027892337        4.52365254815238
C            6.12475173846897       -5.09959315112124        5.21372297889370
F            7.41162612707653       -4.62555948099353        5.12190314206696
F            5.89938149643958       -5.15536913051612        6.55729131269378
O            6.03158199447249       -6.33344105587155        4.65325592312866
C            6.80985760321083       -7.38537682088790        5.08602907834733
C            7.74972444003770       -7.31398811213074        6.10310949024707
C            8.46535672157060       -8.45255535585630        6.43579898380846
F            9.37025453356694       -8.38018443379520        7.41710971885050
C            8.26634630617798       -9.65948258617005        5.77814902325259
F            8.96695518186938      -10.75001652837685        6.11198259035493
C            7.31697970758639       -9.70386377670075        4.76083939912845
F            7.10249175136537      -10.85151665663449        4.10809874422913
C            6.59159076788169       -8.58331459341770        4.41202408700102
C            4.27635540466979       -3.38239311414878        5.24478253506663
C            3.42008703731504       -2.52888322002267        4.57584328872954
C            1.19636110336138       -1.42480280540314        2.87302017118830
C            0.31287325037324       -0.60084053243838        2.20156787697871
C           -2.46469133434720        3.48222735444143       -0.13669470673725
F           -2.29943280028050        4.14747255486051        1.01070629915150
C           -3.18640674176596        4.08611086887832       -1.14315795004881
C           -6.04654547322055        5.55719027320358       -4.70207527030283
O           -5.97856914213517        5.72068660028099       -3.36685088011853
C           -6.84507034282838        6.63852234485043       -2.73908757365071
C           -6.92721783622889        6.25897431032898       -5.51216729968354
H           -8.78001562161598        7.36178912747298       -9.25281571771018
H           -8.29800776649625        5.64790202992831       -9.22157094587846
H           -7.06712317941449        6.92163458614105       -9.45960272769226
H           -6.13484966290181        4.94743328897105       -8.54554340272513
H           -4.57604686856225        3.70219201107274       -7.11848816880857
H           -2.91326651721177        1.63064419328558       -3.47691981067731
H            2.42045834666704        0.63679403121303       -0.13015725173672
H            3.99415668645140       -0.83578233407862        1.07552260633365
H            4.38386378999130       -3.16131807572524        1.40012665605728
H            5.91734108488572       -4.67987643332331        2.58749141221818
H            7.95346060361097       -6.40914944554626        6.65177479562146
H            5.85962038342026       -8.63375525591094        3.62364738735100
H            4.25078300923627       -3.44679468588196        6.32143105388969
H            2.73468864957428       -1.91482564697499        5.13956642842268
H            0.83641492174216       -2.01636089101465        3.70113409488852
H           -0.71572334718824       -0.53962590680770        2.51676273405296
H           -3.62296274241070        5.05997312089178       -0.99666578960278
H           -7.89445902760097        6.37047507007695       -2.89262632681247
H           -6.67251828717160        7.65968718037872       -3.09163526366153
H           -6.61076872641318        6.57899228637862       -1.67753199944260
H           -7.60876792615407        6.98722072697031       -5.10543832620461
