53
 energy: -98.399014349073 gnorm: 0.000319105279 xtb: 6.7.1 (edcfbbe)
H          -10.73663072589557        0.48951176318667        0.46932431981499
C           -9.68475629075415        0.26912361968271        0.40962162018091
C           -8.73627610150272        1.27159289555708        0.52842415402524
F           -9.13674583803022        2.53315322024193        0.71882807611267
C           -7.38458399030123        0.98573820794277        0.45087644056217
F           -6.48001072338530        1.96896356836280        0.56396443336217
C           -6.91171533575642       -0.32551599640425        0.25178469769068
O           -5.58291724408070       -0.45602979137145        0.20234153769942
C           -4.96995411903207       -1.72036303592662       -0.03150197583387
H           -5.22864662964485       -2.41610877934088        0.77442228598470
H           -5.31543878915504       -2.13478747722487       -0.98516354480833
C           -3.46340551137799       -1.49191830838558       -0.07064900413266
H           -3.16211348432821       -0.99431769703076        0.85189977238541
H           -2.97851606286306       -2.46694511450015       -0.11408445027741
C           -3.05610104034491       -0.63268710461803       -1.26639020604163
H           -3.31852559966791       -1.15130096862780       -2.19187477589301
H           -3.62666239277337        0.29652375876361       -1.22757876922916
C           -1.56730619441445       -0.29181123975500       -1.28195671480177
H           -1.38881579414427        0.45189535745320       -2.06211832227967
H           -1.28260474187958        0.15275525585250       -0.32767347936602
C           -0.67600570566978       -1.50337608727287       -1.54891571708205
H           -0.78423625232287       -2.23239306157198       -0.74595409336457
H           -0.96245245816124       -1.97721023082037       -2.48961398206721
C            0.79520428390284       -1.10976245685928       -1.63508642028500
H            1.39948344734851       -1.97738068545018       -1.93484384732402
H            0.92969312729753       -0.31193419641976       -2.37858742998425
O            1.20026931940920       -0.65757053447962       -0.35782647048430
C            2.47754905379034       -0.24634304295847       -0.17733080899182
C            3.46195341139490       -0.22516304454431       -1.16172387140114
H            3.24557379044403       -0.54149329547797       -2.16985888355689
C            4.73857832778238        0.20674452122629       -0.85495441171272
H            5.48236120408291        0.23256843109063       -1.63748654684679
C            5.07021006576284        0.63951206871835        0.42543516288611
C            6.42700042195675        1.09789264412624        0.73827772906783
C            6.63960852113492        2.17964286263827        1.59710682580911
H            5.79153374906234        2.69647713660313        2.01895084708016
C            7.91316719311880        2.61369328088677        1.89295037805443
H            8.06856492839160        3.45403267959314        2.55290789727918
C            9.02668265575138        1.97555675114032        1.34019194220891
C           10.33199057736102        2.41925460196130        1.64688691983977
N           11.38389340604169        2.79275564994959        1.90638887263918
C            8.80644746209536        0.89521956120047        0.48366350606407
F            9.85684023621907        0.25584150850492       -0.06062319959355
C            7.53454585556519        0.45894242899961        0.18145511574428
H            7.41585814307055       -0.39240997441088       -0.47016031095621
C            4.07440735410759        0.62357260014674        1.40433897507615
H            4.30925169135445        0.93211958348646        2.41192858045968
C            2.80445851032773        0.18360123630725        1.11203151774925
H            2.03671707858070        0.15854189335031        1.86905551958893
C           -7.88238390303569       -1.32657128607375        0.13341330205335
F           -7.53893753049846       -2.61770520916461       -0.05929573157722
C           -9.23790132547186       -1.02128799415348        0.21215029983934
F          -10.12817003085264       -2.01282047411981        0.09263223864058
