57
 energy: -115.077633522392 gnorm: 0.000469871079 xtb: 6.7.1 (edcfbbe)
C           -1.41169505788661        1.80154072234267       -9.31370480937306
C           -1.79502942838471        1.84059146901770       -7.83870769339765
C           -0.59617465333024        1.72491698238315       -6.89711574251536
C            0.17489850277599        0.40416603022726       -6.99077744847307
C           -0.65117864165969       -0.78231837349422       -6.47983292088156
O           -0.89732784730484       -0.66769585180199       -5.09008239518369
C            0.28840775816251       -0.58504795310625       -4.35843183934834
C           -0.03048699772479       -0.45891993180745       -2.88742871448154
C           -1.29061176187436       -0.78326751181338       -2.40918725956142
C           -1.55302809744564       -0.66077507019124       -1.05745647528586
F           -2.76415600158846       -1.00060689225619       -0.60885263064887
C           -0.58558079867804       -0.23590300374681       -0.14601442401416
C           -0.90688489271092       -0.09269167781026        1.30347619787321
O           -1.93331782720169        0.34344974804020        1.73755731788815
O            0.12990436297030       -0.54817782361829        2.03925025352964
C            0.17728081373254       -0.49630318815600        3.40745693672642
C            1.09966006827682       -1.35596877897209        3.99907872927388
C            1.24758411039933       -1.35011924371564        5.36896293490898
F            2.12900699842872       -2.20584631337095        5.91053167445017
C            0.50199653035599       -0.52085755885507        6.21016357298152
C            0.66671240555450       -0.53331293308464        7.67216034601183
C            1.94238677487696       -0.54398108537620        8.23321029302490
C            2.08510306505335       -0.55482976335986        9.60495452687428
F            3.31685901193214       -0.55701451486358       10.12726814094974
C            0.98383932615414       -0.55908790953960       10.46631516170031
C            1.14323233987638       -0.57332513171337       11.87178793185368
N            1.27717953216756       -0.58315143688594       13.00845216269224
C           -0.28241045914140       -0.54934452906418        9.87350647654362
F           -1.36511640687548       -0.56013620705150       10.65898930997837
C           -0.45090236053827       -0.53492748371000        8.50462631168316
C           -0.40685135188704        0.32093502240923        5.56873704752767
F           -1.13496880818332        1.17005608513577        6.30937632206028
C           -0.58084062984427        0.35729799546593        4.19773429911628
C            0.66917418487350        0.08147914716326       -0.66768468399477
F            1.62693361441709        0.52828143592473        0.15659105798188
C            0.95555826142486       -0.01975737864972       -2.01434836480317
O            1.08072946612523        0.50663271588752       -4.73389096772757
C            1.42725807826342        0.45905920570887       -6.10548128465929
H           -2.28209081731988        2.00646081982383       -9.93242807674764
H           -1.02253409362944        0.82629318651982       -9.59560722755139
H           -0.65430154950849        2.55164673534817       -9.53060695458155
H           -2.51652427984178        1.04970430079432       -7.62837663532628
H           -2.28937111617111        2.79172620583911       -7.62969444668318
H           -0.93852741240831        1.84307806878577       -5.86704351127352
H            0.09751445909072        2.54112738386818       -7.11313051021322
H            0.48244516240467        0.21335901273675       -8.02120350497581
H           -0.11134078002821       -1.72236068729601       -6.67956805648067
H           -1.63347508094734       -0.83159248849136       -6.94846413216779
H            0.87627388219382       -1.52371444282222       -4.52368878666738
H           -2.06241382711225       -1.11406163903560       -3.08388602137465
H            1.69346424149503       -2.01675318542555        3.38959103702841
H            2.82698105810776       -0.53516565428866        7.61725511514047
H           -1.45102217869953       -0.53352431289085        8.10238896369514
H           -1.30178138003926        1.03803366223965        3.77658582403084
H            1.93001373782266        0.25722279800703       -2.38095595928708
H            2.05602115061155       -0.42681566813357       -6.29257266318297
H            2.01352564041383        1.36029689073603       -6.28976380466498
