68
 energy: -84.635392679666 gnorm: 0.000110600541 xtb: 6.7.1 (edcfbbe)
H           -0.87760568905073        0.15424174792793       -1.51554017543480
C            0.18423566012719        0.12939103342452       -1.32213725825253
C            0.88782532466357        1.31448849735602       -1.21982111762622
H            0.36288255372271        2.25305912790512       -1.32772647349288
C            2.25681548843077        1.31715375503867       -0.98676888227285
C            3.02313175412561        2.59973184024735       -0.84451256009424
H            3.96797965754603        2.51883264887202       -1.38824738896360
H            2.45561564648912        3.42290493533388       -1.28000375763227
C            3.33882813256805        2.90570865687691        0.62650532875111
H            3.91874519331556        2.07393110901835        1.03410994900222
H            3.96346958584674        3.80122805916774        0.67634501467046
C            2.09600627078457        3.10745220051650        1.49872636509126
H            1.40852601409382        2.27245523070825        1.32185416020276
C            1.37184102018137        4.41407161348124        1.17520122636960
H            2.06179290052348        5.25078033069552        1.30279295436917
H            1.04568082792596        4.41561176235280        0.13361637524132
C            0.14895846150567        4.60153297473533        2.06912812163986
H           -0.35034280919932        5.53848953087623        1.81630857077000
H           -0.55573600610930        3.79032067823364        1.86851812299585
C            0.49848943110432        4.57721809950872        3.56031800878847
H           -0.44089161813437        4.55876425446158        4.12734750588275
C            1.28041949827462        5.81272840166074        4.02289724889493
H            1.67033264496241        5.61766730910692        5.02554787762124
H            2.13509718245718        5.98799346443270        3.36943333813446
C            0.43117306344430        7.08119104811419        4.07652489937119
H            0.06450675067292        7.32608794601979        3.07810190055106
H           -0.43818303603402        6.90767794693767        4.71536976829153
C            1.22679321943112        8.26370362035020        4.61675010019801
H            1.58412870733428        8.05607691665660        5.62329339167541
H            2.08876713077907        8.46497364832988        3.98384858090647
H            0.61003086009891        9.15901761703599        4.64998037851982
C            1.25475695148531        3.28009351916813        3.86650614081264
H            1.55415256905418        3.26581109739689        4.91712195807328
H            0.58165169413986        2.43465535455306        3.70278320237715
C            2.48276470598476        3.10363110491281        2.97872058207591
H            2.97161706670583        2.15816564475408        3.22659394006174
H            3.19906393893750        3.90496465763056        3.17049729600967
C            2.90581504392207        0.09451577202115       -0.85632169535839
H            3.97110362397800        0.07522447790721       -0.67307872002419
C            2.21086319044395       -1.09316614977489       -0.96184354167749
H            2.73069779387591       -2.03320430970310       -0.84424791512889
C            0.83743322410357       -1.09290953762591       -1.19626617645966
C            0.11133891471982       -2.36461600461813       -1.32810833252366
C            0.64210052136863       -3.41751346735188       -2.07157889483828
H            1.59261258541479       -3.27643482693942       -2.56430587396727
C           -0.02859067269978       -4.61671639567797       -2.20580620402958
H            0.41055467895143       -5.41056326264791       -2.79221970736233
C           -1.26073505495798       -4.82014983661071       -1.59554282631470
C           -2.00808108742559       -6.10699825958831       -1.78047487546656
H           -1.30296778705556       -6.93778786713822       -1.85189533921579
H           -2.66174014518484       -6.28594366450962       -0.92478118982252
C           -2.85454496693521       -6.05821705127905       -3.05863806960263
H           -3.56285610740200       -5.22972151220135       -2.98685510866823
H           -2.20190551400045       -5.86009586434557       -3.91203281449954
C           -3.61366810171940       -7.36190171128354       -3.28825452380745
H           -2.90135096572930       -8.18764255643336       -3.35867718039152
H           -4.26299580816629       -7.55874394870615       -2.43177012616042
C           -4.45795313088403       -7.31702116939661       -4.55962539286100
H           -5.17253711772629       -6.49383371636295       -4.48885889201417
H           -3.80940212920347       -7.11818378881830       -5.41596385622537
C           -5.21005150655798       -8.62267846071548       -4.78624611506668
H           -4.51354532909591       -9.45358983880935       -4.87619091886152
H           -5.87940617783494       -8.82707999450311       -3.95335816399637
H           -5.80179691487543       -8.57107925368978       -5.69715725517325
C           -1.80470150732366       -3.78458844474338       -0.84889417551358
H           -2.75569792888569       -3.89865123599686       -0.35101618186275
C           -1.12415221694331       -2.58939770594200       -0.72651586264904
F           -1.68718015453543       -1.62310779816185        0.03655123606515
