38
 energy: -47.881238413161 gnorm: 0.000071958910 xtb: 6.7.1 (edcfbbe)
H            1.03024759645333        5.51214849340534       -0.34109049948074
C            0.44917263303737        4.60257935085049       -0.29840351022293
C           -0.93496943697947        4.65982694946862       -0.45697339303206
C           -1.57504480264011        5.90067359819270       -0.67201673290757
N           -2.09582678615704        6.90742334135149       -0.84641657285161
C           -1.68631644710300        3.48539328760365       -0.40217718896345
H           -2.75852878588798        3.53215576818376       -0.52539289439119
C           -1.05534645396518        2.27718545741252       -0.19169102743776
H           -1.65067952314557        1.37745897743767       -0.15161184209103
C            0.32626079976935        2.20512611119737       -0.03121529902350
C            1.01472503952124        0.88694454284878        0.19580698524085
H            2.08961221482804        1.07181815981585        0.30640467750286
C            0.81810442940001       -0.05364033012828       -0.99876307977794
H           -0.24586611530444       -0.22472267469011       -1.16390338985930
H            1.21650488716940        0.41843510675547       -1.90029885291342
C            1.52980803405544       -1.38254954647366       -0.76286120522325
H            1.37312105998722       -2.03719918114828       -1.62122816885128
H            2.60439675320880       -1.19737918050484       -0.68577764540556
C            1.06564762951259       -2.07713472336294        0.52207396480023
H            1.72101705652221       -2.94004166250733        0.69378825239279
C           -0.37020982286313       -2.60978367631874        0.44109584293568
H           -0.68796700681765       -2.89658318943183        1.44704977875680
H           -1.04791357940342       -1.82886034422178        0.09590714846182
C           -0.51501101323131       -3.82486335061425       -0.47308232104502
H           -0.24129176613065       -3.55704935705159       -1.49516961110345
H            0.16819197699369       -4.61045366017646       -0.14180994117058
C           -1.94214831531463       -4.35995299493231       -0.46648191726535
H           -2.23458119670789       -4.65761569191903        0.53831827490329
H           -2.63763654527105       -3.59796135913654       -0.81252507432786
H           -2.03050093495465       -5.22502787396248       -1.11951928518591
C            1.24647709901176       -1.11248843598504        1.69992843110609
H            0.88518258701231       -1.57915693650243        2.61885635964248
H            2.31314101568000       -0.91154711315517        1.82952696699610
C            0.51875561253967        0.20984425366249        1.47855151944881
H            0.69541645846920        0.87291123688681        2.32908774434268
H           -0.55513394783091        0.03339955062062        1.41663429607997
C            1.06304368022815        3.38408019696881       -0.08839981256150
H            2.13616591633098        3.34658689955782        0.03376902248066
