82
 energy: -131.357089476453 gnorm: 0.000090725343 xtb: 6.7.1 (edcfbbe)
C            1.65777963092482       -0.79086978499692       -6.46498265100807
C            0.82429989581039       -0.18360824001680       -5.34354029936117
C           -0.54356269561659        0.28152710822803       -5.83814945062743
C           -1.43384474603957        0.73324387892396       -4.68280389681806
C           -2.78573721341601        1.29962074593416       -5.12324760366276
C           -3.63626815159916        0.36323895632077       -5.98764464206417
C           -3.78229732059481       -1.05604693838540       -5.43945528976425
C           -4.49702547772054       -1.12288972032970       -4.09183900008239
C           -4.45729552970798       -2.52362517049297       -3.47292871343488
O           -3.20756615134699       -2.77776411841233       -2.85701119751807
C           -2.12314014363052       -3.17545470029879       -3.54710185415305
C           -2.16843778814772       -3.89551561988712       -4.74112003261777
C           -1.00200538074081       -4.33808077925073       -5.34982751156763
O           -0.95921112502731       -5.02321237492620       -6.51693760145280
C           -2.16272748573736       -5.31435984220125       -7.18747729735187
C            0.23598899377646       -4.08408881402489       -4.74885838668947
C            0.28825409011273       -3.39169925035644       -3.56528599067968
C           -0.87188723865501       -2.91202007663750       -2.95364191982424
C           -0.78672155200322       -2.08783016917442       -1.73482941246860
O           -1.58198497011023       -1.25975630152103       -1.37770166772920
O            0.35361055129925       -2.38825571124893       -1.05157128124111
C            0.70825412237477       -1.77286684063495        0.12402258993014
C            0.39126192575367       -0.45897236734156        0.45306192205426
C            0.82053505845088        0.06374695525255        1.65802303150575
C            1.57617760337349       -0.70780715258737        2.53656394537429
C            2.04086807361529       -0.20131447444331        3.84514146079468
O            2.70694896981031       -0.83706954643294        4.62252530544831
O            1.63970926854762        1.07263796060938        4.05862586949482
C            1.90221321183442        1.71858043968313        5.25127315653364
C            2.19638999255762        3.07591550906349        5.17253350741128
C            2.42406188778385        3.79938756544571        6.32426260233982
C            2.35406677070797        3.18676893283607        7.57533184448562
C            2.59657337876729        3.95593208799550        8.80163151256052
C            3.61651785124943        4.90938257875752        8.85111815629914
C            3.85057947080989        5.63221500186769       10.00127945993112
C            3.05595504890941        5.40832919520676       11.12039968466065
N            3.29341062960996        6.16138969584278       12.32156120227286
O            4.18645625272164        6.98336361944687       12.30571452242523
O            2.58662176825552        5.93175269731249       13.28129534356803
C            2.03419761784426        4.46535518744758       11.09208694638261
C            1.81163094745900        3.74516764137345        9.93805761547104
C            2.04666009852809        1.82930316463659        7.63678305423324
C            1.82266190983200        1.09407761616300        6.48892930495926
C            1.90829069401607       -2.01782546919700        2.18798008172339
C            1.47750260048256       -2.54739155289773        0.99344232817024
H            2.63601001333922       -1.09086714659001       -6.09670968031424
H            1.79904205563995       -0.07227451966943       -7.26965532682132
H            1.16152976102647       -1.66967435538950       -6.87176278019700
H            1.35932535456024        0.66264823563496       -4.90649829514370
H            0.68334400767189       -0.92980465601951       -4.55800033176496
H           -1.01640139423174       -0.54317402135489       -6.37436389215428
H           -0.41548090191554        1.10553836585902       -6.54461265869011
H           -0.91001520124199        1.51243394495792       -4.12270917240697
H           -1.58714535086772       -0.10112392174895       -3.99624544866441
H           -2.61705994999033        2.21725859770416       -5.69296107064065
H           -3.34702875721046        1.57530581371205       -4.22830703736104
H           -3.19131112192567        0.29747376244110       -6.98296621339762
H           -4.62779033684212        0.80823376459009       -6.10393896063343
H           -2.79041306803512       -1.49541395224558       -5.34280934614935
H           -4.34165641835072       -1.65294665996863       -6.16701765075385
H           -5.53880482484983       -0.81875010122473       -4.21063069373565
H           -4.02076448652471       -0.44752039088759       -3.38121311714403
H           -4.72029600600119       -3.28994693732852       -4.21017289087313
H           -5.17164835874451       -2.58090539619700       -2.64720210929712
H           -3.12342039220500       -4.10896857859322       -5.19142210268824
H           -1.87387226388023       -5.85353928860943       -8.08803312283383
H           -2.69637252298357       -4.40106188784149       -7.46926367264900
H           -2.81685211738956       -5.94940727024626       -6.58183328362106
H            1.12892760572029       -4.43832213684681       -5.23622688330696
H            1.24110233865273       -3.18943654742006       -3.10206622516184
H           -0.19566273328434        0.14356817991423       -0.21993978316043
H            0.56873018687283        1.07931091211169        1.91998013290481
H            2.24099249519679        3.54654232888653        4.20280432388013
H            2.63473701632671        4.85597342599342        6.25551369339675
H            4.24157158952628        5.06502878906186        7.98537198890072
H            4.63949572958154        6.36683116258200       10.05465376837801
H            1.43118808568831        4.31623148386804       11.97472238161448
H            1.00891240309565        3.02481991539830        9.90412458635772
H            2.00565074310984        1.33321415971734        8.59462698906050
H            1.59483399605804        0.04278315043782        6.55429655507265
H            2.49988250528717       -2.60301226692341        2.87524083154978
H            1.71897497394570       -3.55967748007151        0.70955775048475
