57
 energy: -103.673994122867 gnorm: 0.000213068338 xtb: 6.7.1 (edcfbbe)
H          -12.81007082694297        0.13709534385029        3.66192032942458
C          -11.73808706815579        0.06966073152288        3.73163050624014
H          -11.33897793908933       -0.14811864922602        4.70503902184681
C          -10.98679221357089        0.24908036039390        2.65077378279533
H          -11.46743864752492        0.45570638239287        1.70393914929586
C           -9.53344164332819        0.19102556524258        2.56437292138749
C           -8.65128508639291        0.04030949795890        3.64167329468275
F           -9.11209479613230       -0.06207787459794        4.89512721965663
C           -7.28043195970130       -0.00166559857231        3.46550213528246
F           -6.48621922107907       -0.14645926874138        4.53725437259616
C           -6.67095336002131        0.10196181821936        2.20322449667723
O           -5.33399416325692        0.04297838081240        2.18865632362182
C           -4.60902866338945        0.13927161259576        0.96814484492045
H           -4.89565140721059       -0.67449894371674        0.29231397678307
H           -4.81917259910420        1.09636602262728        0.47734010705690
C           -3.12989610581976        0.03886409205734        1.31999351240229
H           -2.87999460057087        0.84394482257974        2.01238837232702
H           -2.95631097326431       -0.90705442820346        1.83489456723131
C           -2.25191699695485        0.12717006271911        0.07512782246812
H           -2.51125063138157       -0.68228315498398       -0.61034669673376
H           -2.44569781763467        1.07047611377737       -0.43964918909685
C           -0.76877247344415        0.03794509073230        0.42668266937243
H           -0.50999707545532        0.84769800850054        1.11193320680974
H           -0.57517067334963       -0.90480007323669        0.94240617481777
C            0.11228321549580        0.12540948106322       -0.81578256216765
H           -0.12449988800134       -0.68995661132039       -1.50129182653468
H           -0.07129854504807        1.06449508625817       -1.34030431174120
C            1.59141388710449        0.04686537739545       -0.45633555080529
H            1.86308299239594        0.87746680539190        0.20621266720450
H            1.80337143082792       -0.89710231647024        0.06002149542207
O            2.32522326584562        0.12151293664832       -1.66889281911928
C            3.67355758309548        0.04682641769093       -1.66294830841514
C            4.28605840367260        0.09928778317595       -2.92053374061345
H            3.63973377648856        0.20169616421320       -3.77761598806552
C            5.65148869874612        0.02304324003040       -3.06959818120116
H            6.07912249207620        0.08308680653868       -4.05851022155419
C            6.48733038444142       -0.09892636655735       -1.95912006638629
C            7.94488392508675       -0.18475236381497       -2.10489610456647
C            8.79066538576739        0.45967729405768       -1.20070860679936
H            8.36632217096551        1.04704572435388       -0.40037236084021
C           10.16080626826954        0.37687987939584       -1.33065837239593
H           10.81100560115737        0.88106437540425       -0.63084984896146
C           10.71528194604441       -0.36332395145015       -2.37593306953417
C           12.11854935506941       -0.45791053189837       -2.51013541938323
N           13.25740126312519       -0.53681715944061       -2.61794044192348
C            9.87986382780433       -1.01133307353876       -3.28701413535159
H           10.31322086955862       -1.58568061269424       -4.09263869194100
C            8.51116080214553       -0.91733535214680       -3.14931687493030
H            7.86853568532667       -1.43560018092868       -3.84508847393063
C            5.89569352597866       -0.14075641773428       -0.70226020232473
H            6.49023220123300       -0.25359334309915        0.19102269750103
C            4.52332617398585       -0.07435568886186       -0.56220985269645
F            4.03982226093583       -0.13585874271838        0.70726347000512
C           -7.54608571696093        0.25483864014014        1.12432533957182
F           -7.08862965286411        0.36716111169840       -0.14158934331971
C           -8.92073231466327        0.29760973282921        1.31298476699978
F           -9.68553433234658        0.44676994168393        0.22035201691425
