60
 energy: -76.533204174493 gnorm: 0.000070415604 xtb: 6.7.1 (edcfbbe)
H           -0.72965072275788        4.58052654671119        1.60808911911298
C           -1.03712953906194        3.78303737332999        0.94043245598543
N           -0.39420045090240        2.64131750120853        1.07739124525526
C           -0.74326541709637        1.63525828851332        0.27371175196748
C           -0.03028372527507        0.36983974521704        0.40896306988043
C            0.94796067419178        0.20671436752955        1.38589534109623
H            1.16681015782322        1.03373882630770        2.04296065811012
C            1.62863000124301       -0.98776003344770        1.51817798474756
H            2.37994266815638       -1.08277936076866        2.28666908189918
C            1.34299143354542       -2.05019868544515        0.66312226332220
O            1.94881126813810       -3.26181794576513        0.69316634618375
C            2.93406540501042       -3.52069603196953        1.67325888692323
H            3.76923390354651       -2.81470909400766        1.56430981129037
H            2.50514119020293       -3.40734064339472        2.67864438528707
C            3.42935350207754       -4.94952807624147        1.47202848154908
H            3.78478484262125       -5.04990205517198        0.44523063082790
H            4.27062608117866       -5.12481931627416        2.14520751167482
C            2.32737520407599       -5.97432073176061        1.73015568307002
H            1.98919256356222       -5.88934515360424        2.76579219618899
H            1.47979798480689       -5.74586420913239        1.08223880569313
C            2.80148194387891       -7.40075974642677        1.46646160306081
H            3.14905440693076       -7.47979298878706        0.43378212100986
H            3.64932145739044       -7.62792817339702        2.11769785871984
C            1.69334450035707       -8.42378019384351        1.70323744671531
H            1.35029699366079       -8.35283099760098        2.73820191644629
H            0.84377705505696       -8.18923093739766        1.05772534014479
C            2.15777913167467       -9.85112624012987        1.42376620681069
H            2.50371549142878       -9.92106094005061        0.38989529052976
H            3.00469607546341      -10.08849359083198        2.07184905122992
C            1.04409324711893      -10.86528465190256        1.65387920285423
H            0.69832894029335      -10.82487993352664        2.68459572894225
H            0.19846400703308      -10.65680161796647        1.00201504485050
H            1.39495562644798      -11.87407819062636        1.44884260320029
C            0.35980228399852       -1.88869897988852       -0.31938113046008
H            0.15180959858545       -2.72208318128985       -0.97213382753093
C           -0.31676099100292       -0.69932972500035       -0.44342430593498
H           -1.07591464190431       -0.57114826547309       -1.19846710397966
N           -1.70561248572497        1.71204385332139       -0.64781805046032
C           -2.34226656163588        2.85765157443893       -0.77094268499624
H           -3.12205108018365        2.88557092966848       -1.52410987497843
C           -2.05403750262534        3.97521138560564        0.00926084763025
C           -2.74813892417471        5.28556982209205       -0.17955951653425
H           -3.80036384309206        5.11382249683170       -0.41886706902610
H           -2.69471135177228        5.86949113611177        0.74199667597556
C           -2.09636053190121        6.07636969120171       -1.32079601553717
H           -1.04473753286231        6.25099669300711       -1.08062464062272
H           -2.13099604183852        5.47875081317859       -2.23493428423573
C           -2.79506071872280        7.41190742957125       -1.55912002273934
H           -3.84904833736120        7.23289550811220       -1.78566848265382
H           -2.75119524820243        8.01199224869954       -0.64696866735559
C           -2.15809478330554        8.19016925573260       -2.70769551241492
H           -1.10499435615210        8.37231522606514       -2.48047533483048
H           -2.19901618554093        7.58716238089554       -3.61799912408510
C           -2.85768251908622        9.52418265327710       -2.95676617635487
H           -3.91134120773913        9.34224770017115       -3.18101075057607
H           -2.81318749374251       10.12997944148354       -2.04871991350756
C           -2.22035308822186       10.29093804224338       -4.10894493397075
H           -1.17376579368709       10.49832128065312       -3.89639824089857
H           -2.27343954277668        9.71141330899265       -5.02813222968968
H           -2.73201702116035       11.23697417095754       -4.26967475480135
