49
 energy: -103.879281961357 gnorm: 0.000145623439 xtb: 6.7.1 (edcfbbe)
C           -0.06937367621639        0.95111015688574        5.59151753195221
C           -1.07457091704372        1.56272152114997        6.56065611493558
C           -1.73534871937800        2.84233565521554        6.04461512848675
C           -2.87321314561134        2.60646165702643        5.03998352361247
C           -2.41176101975007        2.08554549116837        3.71409539805174
C           -2.79689649063382        0.82941262460563        3.26175890174934
C           -2.35777134522603        0.36786581706523        2.03702161570773
F           -2.73774860336881       -0.86467919358007        1.65248263610969
C           -1.51568016741310        1.10610544663471        1.20494987354136
C           -1.04313260848174        0.59415257187293       -0.08989088068551
C           -1.92236238303463       -0.04415419824061       -0.95848775924130
C           -1.47001200377260       -0.52873470414568       -2.17189917480371
F           -2.35224084703267       -1.13185910389504       -2.97129670265697
C           -0.14047977583809       -0.39979043524594       -2.56138963872317
C            0.42499878051802       -0.90495919369857       -3.86883929645143
F           -0.51308527238654       -1.49195176274865       -4.65164210807861
F            0.86323459700050        0.15093930473599       -4.62140157241147
O            1.43937000389841       -1.76565572257432       -3.59583752318618
C            2.21040801050120       -2.31288214381689       -4.59483847138513
C            3.26710133555508       -3.09956955137742       -4.14192381611763
C            4.10177817577087       -3.69997620297298       -5.05772828490574
F            5.11265613077429       -4.45269549257338       -4.61363406249813
C            3.92354951950280       -3.54506743828702       -6.43713920124622
C            4.78730428828096       -4.16548558063961       -7.37005424347930
N            5.48640261894570       -4.66801610491960       -8.12401808903895
C            2.85276439656623       -2.74870779691311       -6.84767590212423
F            2.64085426535859       -2.57181544035398       -8.15401787295844
C            1.99553025035750       -2.13291057364335       -5.95394540439055
C            0.71921809567089        0.24531404712429       -1.67246865093015
F            2.00711502261287        0.38639046714473       -2.00514497458147
C            0.29248807013661        0.73918953544353       -0.45794316658154
C           -1.15317087493787        2.36456216026746        1.68901637483704
F           -0.36839092664165        3.15172706127458        0.93044958936816
C           -1.58964126550330        2.85765964164308        2.90048034338318
H            0.43355078778414        0.10854795054761        6.06045279589327
H            0.68410866117524        1.68462235289023        5.31266041255712
H           -0.55377374331128        0.59631351416587        4.68648538965138
H           -0.55182830626537        1.80240121179759        7.48948786726716
H           -1.84505683550921        0.82719669483205        6.80079779258463
H           -0.97523143843084        3.48417434000653        5.59688129586348
H           -2.16084552432468        3.37840491055782        6.89559983132591
H           -3.38084821652675        3.56064579164167        4.87583268248635
H           -3.59396775684403        1.91322505890525        5.47562344712641
H           -3.43376792696047        0.19471779597416        3.85770820646762
H           -2.96444272863211       -0.16902564054014       -0.71258978085349
H            3.42713126702115       -3.23000757478962       -3.08494333513349
H            1.19067970778861       -1.53402746919026       -6.34782569918476
H            1.00680667871468        1.22340171857486        0.18765714070738
H           -1.28239814486565        3.84686682498685        3.20036171791941
