58
 energy: -106.038991959302 gnorm: 0.000105196205 xtb: 6.7.1 (edcfbbe)
C           -8.76018618063554       -5.07810898833858       -4.68457154332652
O           -8.56624563398273       -4.38918566154351       -3.47148309227402
C           -7.34648980127621       -3.87814683081599       -3.18791072759170
C           -7.23130462731262       -3.22257413046192       -1.95731981606971
C           -6.02750968242698       -2.68168271611068       -1.58292333924358
C           -4.89986145348891       -2.76578026605745       -2.40385975491433
C           -3.60833949729201       -2.20558391863080       -1.98106347684245
O           -2.56615771855503       -2.28003123664530       -2.57624921989182
O           -3.72668394361238       -1.59276962458122       -0.76342987063436
C           -2.65978064440822       -0.98358585805693       -0.14916987407971
C           -1.65570844046155       -0.30367198718497       -0.83107323144393
C           -0.63322165513049        0.29388029191672       -0.12066793088120
C           -0.60739883410659        0.23339801275838        1.27027389347064
C            0.48759324556123        0.82469418598829        2.06795226489456
O            0.54914313130540        0.79423730768137        3.27102449805838
O            1.41140116700374        1.41531108844602        1.27614122776383
C            2.58580177944600        1.93518490174526        1.78137708027484
C            3.29562357281161        1.35385785229440        2.82377848403036
C            4.50455000545564        1.89963980097185        3.20982204745061
C            5.02333256557248        3.02624609147956        2.57540950582817
C            6.31499865245593        3.58988842987632        2.98491522164305
C            7.38360848108131        2.74879356641457        3.30549883571688
C            8.60348649655934        3.27012878856510        3.67948359807914
C            8.76450435933082        4.65009904893369        3.74125650657860
N           10.03500031317068        5.19929516349483        4.12879757229837
O           10.93028428280156        4.42234766931426        4.39013534354732
O           10.13876082609206        6.40798314785057        4.17134527288840
C            7.71249701088142        5.50521696648462        3.43119348097182
C            6.49825743957816        4.97311872880966        3.05348015493503
C            4.29493776200745        3.60060990915411        1.53378131360084
C            3.09091314737255        3.05949366149633        1.13561441029478
C           -1.63418409374282       -0.42549683004651        1.94749815592914
C           -2.65149527290328       -1.03088906994994        1.24498888237443
C           -5.01601243022600       -3.41759835832999       -3.65124798308844
O           -3.91830261199839       -3.46662891179265       -4.42327108384161
C           -3.96941416476220       -4.09974340428475       -5.67909680046265
C           -6.24140735237452       -3.96688917016237       -4.02523325694377
H           -9.80073527673532       -5.39797738245167       -4.67697055105663
H           -8.11313194892143       -5.95804697802929       -4.75450491141512
H           -8.58955306231334       -4.42766749319246       -5.54810788389094
H           -8.10013954793613       -3.16057633328774       -1.32339524014770
H           -5.93858520843711       -2.18052584859242       -0.63294834847545
H           -1.66688285786148       -0.25614739820372       -1.90727565731230
H            0.15249125085280        0.81142765459214       -0.64792855876508
H            2.90622808321359        0.48593782307983        3.33011382909102
H            5.04309975918597        1.45393497374059        4.03239864189306
H            7.25744369601963        1.67926297957643        3.23762682390452
H            9.43893560404513        2.63138632609075        3.92222890486902
H            7.86565102965273        6.57177120435737        3.49365480805673
H            5.67302815681504        5.63085375245935        2.82798288181995
H            4.68935982890314        4.46063123654476        1.01391989789374
H            2.52970313623448        3.49112204231321        0.32164043119292
H           -1.60697317631784       -0.45799511281277        3.02595647455135
H           -3.44822061260674       -1.55155633677475        1.75284725750617
H           -2.96677535614619       -4.00026068650944       -6.09109381262589
H           -4.68494270003025       -3.61191508491430       -6.34922603842781
H           -4.21696961406115       -5.16218894010104       -5.58691305492614
H           -6.32802138334691       -4.46653804863566       -4.97519264280842
