57
 energy: -100.649114257096 gnorm: 0.000217103365 xtb: 6.7.1 (edcfbbe)
C           -2.78486232030585        1.76154356643738        1.98295383259509
C           -3.19467207470445        2.30300137388469        0.61858087323717
C           -2.26373763365214        1.85197180667179       -0.50834432398286
C           -2.39322144628372        0.36366460628173       -0.84783797042275
O           -1.85211048738567       -0.49993782224742        0.13491432945282
C           -0.52290849651479       -0.64661522419821        0.26791009566704
C            0.41124063676890       -0.08945448997452       -0.60128553316563
C            1.77280994194271       -0.30255643442139       -0.42985458602099
O            2.58371317399470        0.25277334338704       -1.39369845166128
C            3.82266309297429        0.73047122797173       -1.09951506805827
O            4.26474471358617        0.80089611814719        0.01833142933392
C            4.53125873467785        1.17424832451106       -2.31189530442518
C            4.00026641283290        1.02387867749235       -3.58965809608544
C            4.70478235893865        1.44611682270980       -4.69971381194472
C            5.96187164677802        2.03098100752781       -4.54934215234292
O            6.73460370993004        2.47876624414345       -5.56409533933731
C            6.26676930984218        2.35664444443426       -6.88764721674339
C            6.49705699540022        2.18184176284687       -3.26404011959506
C            5.79248339104255        1.75912052719871       -2.16407990855026
C            2.24474738377069       -1.08506692479975        0.61721836154826
C            1.32644003340571       -1.63508067701048        1.48265663227133
C           -0.04716489576119       -1.43509074969748        1.34026131714324
C           -0.89751547800996       -2.08747170097647        2.35478960105090
O           -0.46512712386125       -2.81172808485110        3.21705846690420
O           -2.20720918557807       -1.78192684134267        2.20574984073944
C           -3.22095295943345       -2.20565018338077        3.01705612389581
C           -3.07183757718290       -2.85506798557463        4.24105918407304
C           -4.19549089407637       -3.19822038447825        4.96686633681744
C           -5.46016049961940       -2.89545932693835        4.47862118319472
N           -6.62403548426368       -3.25488401723570        5.24197290587291
O           -6.45285682385211       -3.81101802822189        6.30643319745987
O           -7.71056637226092       -2.97939796011720        4.77607424615916
C           -5.61606423070867       -2.24503953152171        3.25729116713204
C           -4.49897122736902       -1.90263157740355        2.53293907174865
H           -3.46417446094477        2.12399744117037        2.75110417369040
H           -1.77786628832790        2.08902476232352        2.23452751978607
H           -2.80437131863820        0.67632104526547        1.98930997707819
H           -3.18843365867512        3.39495645300411        0.65208383340974
H           -4.21516562267802        1.98686768491659        0.39042632290864
H           -1.23217342139062        2.07446392082978       -0.22926521138062
H           -2.49977349579835        2.41604423550371       -1.41329675441420
H           -1.94774633445853        0.15289926210189       -1.82769998652342
H           -3.45084375226228        0.08799508410789       -0.89062519448402
H            0.10906181601738        0.51934723802330       -1.43761027030262
H            3.02971076004070        0.56976870265399       -3.71451641849951
H            4.26933589389347        1.31507384975149       -5.67772233723915
H            7.04922763728310        2.77948522444377       -7.51539734774471
H            5.33950067638469        2.91773784356055       -7.03874610587535
H            6.10965619181834        1.30905523114784       -7.16212132601003
H            7.47070260320554        2.63490516904033       -3.16754844716029
H            6.19665899676810        1.86947414544746       -1.16964322636024
H            3.29980599381280       -1.25014934011927        0.75226989396168
H            1.65534324969267       -2.24790809273997        2.30788492505601
H           -2.09078885183765       -3.09210294946877        4.61675542053082
H           -4.10517865972578       -3.70141492837847        5.91741825369491
H           -6.60979947703172       -2.02148418409245        2.90097507932682
H           -4.57868480218615       -1.39797970772628        1.58369691260635
