44
 energy: -62.559216669235 gnorm: 0.000198844144 xtb: 6.7.1 (edcfbbe)
H            2.09236299768390       -1.83382666550682        7.88166425854899
O            1.79820214851237       -2.35802546777268        7.13065858869385
C            0.47165533179958       -2.78780599626584        7.35655140857991
H            0.41934002170050       -3.39708210282987        8.27090907121151
H           -0.19446842569732       -1.92117031818165        7.48181069697275
C            0.01428394783046       -3.61893226187993        6.16164743679080
H            0.72377978097054       -4.43582946753091        6.02105550794356
H           -0.96515666716661       -4.04606671205292        6.38573414139315
C           -0.05231281418174       -2.77962510993093        4.88853124596248
H           -0.77190329111864       -1.96888534055145        5.02904705845698
H            0.92998865265048       -2.33424458739134        4.73096604968280
C           -0.46232917581773       -3.61222537875756        3.67629876928769
H            0.26615660060353       -4.41122152581303        3.51905526909965
H           -1.42639484573307       -4.08319351251023        3.88528579580423
C           -0.59041682759701       -2.78124168496173        2.39962477182350
H           -1.09202681922365       -3.37348984124036        1.63036943583455
H           -1.21060231696180       -1.90377113485291        2.59739399587799
C            0.76878789316195       -2.32488627742545        1.85717058820978
H            1.36713514206039       -3.19684387542208        1.57552290604096
H            1.31572272168952       -1.77482561178955        2.62758990409549
C            0.61347948236206       -1.46232190153019        0.70723285081622
C            0.45408727797204       -0.72764462603680       -0.23271277290311
C            0.28418332384956        0.15755177125716       -1.32163805420358
C            1.39182399303112        0.74722527494644       -1.93301161605650
H            2.38283060690207        0.50974427832109       -1.57452752264025
C            1.22090296182983        1.62965715616012       -2.97835389405349
H            2.08463926073954        2.09687350929178       -3.42913299136490
C           -0.05549062631097        1.95677046780645       -3.43605775880889
C           -0.23393109171215        2.91920701543428       -4.52928922368085
C            0.61576861815789        2.90785653707184       -5.63646018910412
H            1.39738543246590        2.16520478068523       -5.69965615106475
C            0.45459950904333        3.81569440709684       -6.66150164219857
H            1.11114332255184        3.79935054877205       -7.51922325758568
C           -0.56690776444115        4.76457831539391       -6.59412287547173
C           -0.73462169101309        5.70100096506059       -7.63799529983877
N           -0.87066155624469        6.46272465748602       -8.48452129865805
C           -1.42237368145465        4.78669311435475       -5.49133569680208
H           -2.20862320217067        5.52582041921629       -5.44113121290792
C           -1.25425517003549        3.87026796660957       -4.47534423041711
H           -1.90659081989025        3.90191076250214       -3.61516863812914
C           -1.15853235446643        1.35947819325555       -2.82592051679915
H           -2.15245948374765        1.58206765524126       -3.18674390952656
C           -0.99458458896947        0.46795423465856       -1.78716998826616
H           -1.85362581362567        0.00550736961629       -1.32311101063747
