44
 energy: -54.210181438669 gnorm: 0.000067421490 xtb: 6.7.1 (edcfbbe)
H            1.43120773445923        6.33960666881707        0.05785044511087
C            0.85451558794891        5.42626170563241        0.05887167115044
C           -0.52140717193751        5.47864211078329       -0.16101953472822
C           -1.15873497069042        6.71933489876952       -0.38490460127206
N           -1.67721342945172        7.72587606623943       -0.56722822568971
C           -1.26716527180592        4.29938112029931       -0.15959404448134
H           -2.33306314119472        4.34239861874201       -0.32996945097642
C           -0.63870958679492        3.09120659719617        0.05837460110515
H           -1.22963563904268        2.18768676437161        0.05648297865754
C            0.73486918755180        3.02386851132795        0.27882791059047
C            1.42081566911227        1.70532937384517        0.51154827144704
H            2.48909238734567        1.89340084326642        0.67026522973338
C            1.27957879369864        0.78616716125403       -0.70733839211828
H            0.22456110874316        0.61428613368494       -0.92145081981940
H            1.71457775157774        1.27634041704557       -1.58190170441143
C            1.98557734038259       -0.54447823518749       -0.46515892246449
H            1.87071333960248       -1.18316456218625       -1.34186623656840
H            3.05482192888296       -0.35744895609332       -0.33591796282916
C            1.46652726012408       -1.26424667379129        0.78424180442774
H            2.11368074855429       -2.13098221866237        0.96690338255330
C            0.03500093347788       -1.79304921609365        0.63242442334931
H           -0.31783496935506       -2.11530323226286        1.61569705970000
H           -0.63010957210381       -0.99908278298405        0.29273453250228
C           -0.07753510847226       -2.97304700663786       -0.33067112597955
H            0.23504634390975       -2.66899117384108       -1.33145340779099
H            0.59091911381151       -3.77353422994984       -0.00435717841070
C           -1.50681630050062       -3.50597252546167       -0.40199977337256
H           -1.82361754928708       -3.82801707134872        0.59300673504546
H           -2.17665286640927       -2.70156086176511       -0.71643027824465
C           -1.63879437627289       -4.67521012611398       -1.37461143572296
H           -1.32088248442671       -4.35421194277529       -2.36943570572932
H           -0.97344964088401       -5.48253915685133       -1.06006663490723
C           -3.06922999260180       -5.19543873016966       -1.44440276084250
H           -3.39817575634981       -5.53947569074886       -0.46612943599020
H           -3.74517658280916       -4.40947400128204       -1.77471780204988
H           -3.14196400366533       -6.02603273752725       -2.14258545595494
C            1.59580627489618       -0.32225354301010        1.98698488176840
H            1.19671810726642       -0.80671939127719        2.88069517646435
H            2.65567061346793       -0.12278932032996        2.16529082394152
C            0.87551749992640        1.00343641335712        1.76057879968984
H            1.01691678264846        1.65081265642354        2.62959879343305
H           -0.19478158486487        0.82736327328402        1.65280693655235
C            1.46600488880832        4.20767380201340        0.27529479522426
H            2.53280060275447        4.17394024997923        0.44477163791902
