54
 energy: -97.482757624528 gnorm: 0.000215213754 xtb: 6.7.1 (edcfbbe)
C            2.29872459249814       -5.14930341606772       -0.50108215724558
C            1.52011781006667       -5.99481620774968        0.49983752627959
C            1.23355794466267       -5.19749792483153        1.77357101712565
O            0.43480926499343       -4.05931656535707        1.51121729427793
C           -0.87102264707203       -4.18869666978461        1.22912156861225
C           -1.62138854016545       -5.33356423189417        1.45630504791542
C           -2.99464891796955       -5.36057622547219        1.21663031168382
O           -3.60120403684499       -6.54310629310739        1.47659436455856
C           -4.99099946332863       -6.65411099245149        1.27119691325200
C           -3.63833905317266       -4.21796407636203        0.74545670125625
C           -2.89751796910253       -3.07948922584944        0.50808674395784
C           -1.52383788351610       -3.03876079035973        0.72373715084286
C           -0.74024778973134       -1.84611897144905        0.36456254093444
O            0.42756780453125       -1.82189515510050        0.08023048776432
O           -1.54536550173618       -0.74263497805474        0.33001443667625
C           -1.07790934640797        0.51033792732071        0.02468796948517
C           -2.00739229079482        1.37564688202249       -0.55479000067470
C           -1.64653055062431        2.66661169569375       -0.86469655162321
C           -0.35133027376864        3.11709104097033       -0.60161153666347
C           -0.01224460452015        4.50315844351558       -0.97369779682445
O           -0.76454027797949        5.27326167350032       -1.51178431883384
O            1.25982938127784        4.81739953702571       -0.60845908728733
C            1.83954093518839        6.02544718896670       -0.89833031000451
C            2.81116715573855        6.45912317090352        0.00637037067732
C            3.48676912358869        7.63713889801514       -0.21887607747334
C            3.18974805904383        8.38462305021261       -1.35434014106565
N            3.89175893145176        9.61858477454737       -1.59306766227360
O            4.72118278387283        9.96097044199838       -0.77687225023011
O            3.61328828438075       10.24086608707068       -2.59581047424254
C            2.22980405953405        7.95458010697363       -2.26181398739662
C            1.55350269688414        6.77194098504065       -2.03888165834196
C            0.56743847931860        2.25233637408279       -0.01121919737565
C            0.20981507045778        0.95684746102298        0.30634461808826
H            2.39775466928945       -5.67185033065378       -1.44910327436875
H            3.29355271188138       -4.93022913660081       -0.12024172023494
H            1.78369945478935       -4.20652037822126       -0.67006541974866
H            2.08595581489863       -6.88913367659858        0.76707040712104
H            0.57397439342789       -6.30996321129019        0.05475148201973
H            2.16478624078771       -4.78252516857196        2.16781393509911
H            0.77877078899914       -5.82945717691070        2.54580874947089
H           -1.17550176553500       -6.23994146453499        1.83087836494956
H           -5.24792844751842       -7.67460170551019        1.55015087491987
H           -5.25534648366937       -6.48818439051042        0.22246599953174
H           -5.54669014186743       -5.95526411498046        1.90350272341190
H           -4.69845114677182       -4.21035999518651        0.55366246103208
H           -3.38812149755729       -2.19881636199464        0.12516464778598
H           -3.00364291248832        1.01237193046388       -0.75235546313599
H           -2.35104941248226        3.34761547282811       -1.31699244658080
H            3.01757201439063        5.85634737319777        0.87630010845672
H            4.23920221902110        7.99422888676372        0.46729148716884
H            2.02611243209703        8.55283948392146       -3.13665280322093
H            0.80678568308152        6.43557557915282       -2.73852061415139
H            1.56732995746406        2.59648462088557        0.20057085993125
H            0.92710219700837        0.29329974937062        0.75989778470708
