44
 energy: -96.584018156652 gnorm: 0.000221130327 xtb: 6.7.1 (edcfbbe)
C           -1.39437346754303        8.38912293416113        3.06152950643586
O           -1.35196599004437        7.37177377917391        4.04064836500865
C           -1.27585825108194        6.09054888857015        3.64860429915419
C           -1.23373407566669        5.66395979237252        2.32191157933478
C           -1.14828490730204        4.31325000386536        2.04478216501411
F           -1.13578893454888        3.95468665408972        0.75292454040173
C           -1.11189138824709        3.33419167017441        3.03561582849726
C           -1.06095053822565        1.87579561415408        2.74433693928385
O           -1.59781537426792        1.03056705811986        3.40343756620418
O           -0.34372475959220        1.65692382203103        1.62441439927998
C           -0.13889317315027        0.40374210999348        1.09336387704973
C           -0.05532593207437       -0.76105143967025        1.84814148780915
C            0.19858943027657       -1.95750088441123        1.20775878832175
C            0.37513805642245       -2.00663657205625       -0.17452089170515
C            0.64286292168209       -3.32062977612354       -0.79064213237589
O            0.71801187949128       -4.35764972859720       -0.18673096574827
O            0.81337792033907       -3.20249904099088       -2.13727141177640
C            1.04582617786660       -4.24659072019792       -2.98601517279973
C            0.83304972848636       -5.59356613584022       -2.69538698449574
C            1.08192358086480       -6.53997728859382       -3.66670242123780
C            1.54405380563086       -6.18254611174172       -4.92995005962743
N            1.79840843366716       -7.22594360378015       -5.89697332987682
O            1.32308941991882       -8.31525728429369       -5.65814254577176
O            2.46761768153037       -6.95755383618721       -6.86563512207499
C            1.74597112927587       -4.82971557456814       -5.21212017897380
F            2.15360706568841       -4.42160950815483       -6.41239796898364
C            1.49577554012456       -3.87073934882185       -4.25176634845546
C            0.29596225740043       -0.82971837652509       -0.92059591464093
C            0.04148809413780        0.36730652606688       -0.28885347192351
C           -1.16566549344783        3.79795084613947        4.35573826171369
F           -1.10660423329007        2.91840815724534        5.35795840507285
C           -1.23687026829545        5.13513476589454        4.66960244189626
H           -1.45324420142406        9.32412674337608        3.61520366999110
H           -2.27579045546771        8.29009448641493        2.42206112734611
H           -0.49034094203110        8.38791722585088        2.44636166115967
H           -1.26863061493152        6.35145772618342        1.49330233866783
H           -0.19286725148204       -0.73422586167039        2.91639688568999
H            0.26706952666936       -2.87529452026307        1.77131242628752
H            0.48674075203029       -5.89591964138118       -1.72171643564133
H            0.92275050678614       -7.58839627061712       -3.46381034981461
H            1.64778836127465       -2.82905930382041       -4.48353498793372
H            0.43057009616918       -0.85864884413295       -1.98983206286142
H           -0.02590480382640        1.29119073933979       -0.84134513307348
H           -1.26514730979210        5.45259012922385        5.69854733016796
