60
 energy: -103.811096547665 gnorm: 0.000173648708 xtb: 6.7.1 (edcfbbe)
C           -2.97977627811617        5.37168976014889       -0.23922318095817
C           -3.76845815344577        4.17865586273098       -0.76626208369974
C           -4.23232194377973        3.22610221773058        0.33789720357338
C           -3.10664860105962        2.58962732689720        1.15170594485637
C           -2.17430074295115        1.72782905036331        0.30631581659262
O           -1.32789082237885        1.03099156163926        1.20795124991778
C           -0.42999863016884        0.15873299577784        0.74964749108672
C           -0.23116211793124       -0.09842440510060       -0.60914774693294
C            0.71228385393183       -1.02523437712893       -1.01623936332092
O            0.98988924353055       -1.30659176005884       -2.33324267531260
C            0.07931482087213       -1.19181746811958       -3.33232342016910
O           -1.07309030884568       -0.87680096599051       -3.16824718632873
C            0.67442762275758       -1.52486244514790       -4.63804436835407
C            2.02707891554790       -1.81495334873662       -4.79336679858988
C            2.54469531079816       -2.11643034664989       -6.03735339776080
C            1.71179920057122       -2.13535307457919       -7.15588662194707
O            2.11252605306838       -2.41722734989001       -8.41558732496933
C            3.46838498625659       -2.72007564743115       -8.65209326257931
C            0.35084098088299       -1.84419352023570       -7.00030984560171
C           -0.15788802667104       -1.54258102068254       -5.76122956944117
C            1.49550088250748       -1.70076787596234       -0.07959778248295
C            1.31291364536214       -1.44632677828480        1.25831634393172
C            0.35835385314449       -0.52914098899669        1.70231720059098
C            0.16729327360858       -0.26954849759809        3.13695327811215
O           -0.60253942671390        0.50780415387437        3.63168966506426
O            0.99331429462179       -1.07508986080814        3.88061744779421
C            1.08727160787887       -1.00271997962732        5.24194595071083
C            1.52075247461457       -2.17467456183048        5.86960035138405
C            1.70294834664116       -2.20465207400255        7.23287177060255
C            1.45015092090749       -1.05654225466043        7.97805261520735
N            1.63955879314386       -1.08177087306875        9.40293021869179
O            2.02467537963517       -2.11880831930738        9.90222916284670
O            1.40675472009926       -0.06486036329915       10.02223059285380
C            1.02307769258474        0.11293906354658        7.36120980593717
C            0.84374475783207        0.14588454659894        5.99308250161905
H           -2.76667246144221        6.06839958123814       -1.04682408062642
H           -2.03365731188700        5.05774711783444        0.19350040775433
H           -3.55027133789023        5.89644503322987        0.52385558763075
H           -3.16645457412896        3.63472213838980       -1.49622891244741
H           -4.65515156241461        4.54606580725909       -1.28833146934637
H           -4.83168887954998        2.43332395927710       -0.11623266992633
H           -4.87894744312154        3.77596418153276        1.02495093741904
H           -3.53822816122538        1.94925012575965        1.92246671478889
H           -2.51936937223152        3.35409864118999        1.65914619319209
H           -1.56947766310857        2.34877760020548       -0.36579309191224
H           -2.75624609923706        1.01525500072164       -0.29296038607570
H           -0.82050539071348        0.41282722395733       -1.34980135051332
H            2.67837040158629       -1.80100550956312       -3.93359013085740
H            3.59695104141538       -2.33499770317093       -6.12772215738483
H            3.54439840792429       -2.90889780485362       -9.72150802330493
H            3.78107386941969       -3.61401579560912       -8.10399871711659
H            4.11874955501254       -1.88127448060892       -8.38594839917010
H           -0.27782357580837       -1.86396657718576       -7.87610312997285
H           -1.20505227060154       -1.31637021406539       -5.63171536192360
H            2.22969789189202       -2.41121897559787       -0.42231779525061
H            1.91423005527378       -1.96462978365001        1.98728448022848
H            1.70791787800994       -3.04735391905785        5.26440427927370
H            2.03536573042235       -3.09923684302882        7.73656152441094
H            0.83964002458232        0.98902103650862        7.96424649200278
H            0.50964466909289        1.05026177717605        5.51326907620264
