45
 energy: -65.734149822584 gnorm: 0.000087535335 xtb: 6.7.1 (edcfbbe)
H           -2.72647009783835       -7.57548134005115        0.16816069977428
C           -3.21428969404007       -6.65454800078738        0.45273735202219
C           -2.51576404624579       -5.46625778193909        0.47013945042136
H           -1.46755620046403       -5.46067344456348        0.21063707583701
C           -3.13742324214112       -4.27324622994903        0.84339556629689
C           -2.38926509068294       -3.01139402659157        0.85477700232433
C           -1.46895178444745       -2.71886334330276       -0.14635786050254
H           -1.31687190510700       -3.42026057173930       -0.95370304603614
C           -0.76415346013372       -1.52938338753139       -0.15303709180676
H           -0.06857140194191       -1.33902904604243       -0.95513443662209
C           -0.95939758861568       -0.59820735348223        0.86265603497039
O           -0.32403326066659        0.59650771069567        0.96069110678639
C            0.61769441321034        0.95322809051180       -0.03082839623617
H            1.43443384281411        0.21836470120275       -0.06014595038984
H            0.13569243081916        0.98039192090481       -1.01837993489286
C            1.16861986274447        2.33169916397780        0.31672023868869
H            0.33653625460484        3.03541376079877        0.37335176931428
H            1.63239955161480        2.28485058561534        1.30320054348680
C            2.18475977688104        2.80338713380975       -0.71914209502081
H            3.00836113577455        2.08763838694683       -0.77086490833982
H            1.71052897158342        2.83253085740815       -1.70308808375078
C            2.74005771414151        4.18593857871604       -0.38637851883086
H            1.91743260378633        4.90263832378131       -0.33116935293998
H            3.21912750949014        4.15589890533080        0.59439107798727
C            3.75042769427877        4.65379095438091       -1.43036497358841
H            4.57555858783237        3.94092109008970       -1.48308503867655
H            3.27045485320623        4.68159868280804       -2.41171228042367
C            4.31178248391071        6.03662954259656       -1.10456558207735
H            3.50764416174383        6.77413866185328       -1.08272698405896
H            4.78484828763786        6.01685154263842       -0.12088792288650
C            5.34010804670143        6.48567350309845       -2.13209818334327
H            4.94555620359123        6.42252571413379       -3.15169169617883
H            5.69477358995136        7.50169947160135       -1.93041399713053
F            6.44788898755941        5.67166974761174       -2.09191299947099
C           -1.87735505428199       -0.88777547890895        1.87575367031588
H           -2.01607455617008       -0.16205578871081        2.66152596397875
C           -2.58213647569560       -2.06937314465314        1.86691386451368
H           -3.27388458303255       -2.28035230295118        2.66888989938678
C           -4.48632200672381       -4.30453559289930        1.20166457817191
H           -4.98466987399510       -3.38644611660696        1.47520566752121
C           -5.19689757594302       -5.48576775453441        1.18479309970061
H           -6.24242944332900       -5.50275937335888        1.45608677663485
C           -4.56380557012468       -6.67176319435277        0.80909147957828
C           -5.28599395678422       -7.88510860175074        0.78799429757985
N           -5.87237009547269       -8.87068515580511        0.76891211791583
