54
 energy: -97.486490228401 gnorm: 0.000125826303 xtb: 6.7.1 (edcfbbe)
C           -0.47518523693011       -1.08962587123603       -4.38413295965291
C           -1.60590711743083       -0.68980804840194       -3.44445836157970
C           -1.17445093128060       -0.75504519833801       -1.98228747515816
O           -0.14188965621000        0.20010376481216       -1.79880834558948
C            0.39128976881218        0.38952280617552       -0.58434718898793
C           -0.02517862667178       -0.31562513290480        0.54612265265588
C            0.54251384024083       -0.06607799126746        1.78435010951029
O            0.18170224772005       -0.73174712733452        2.93247466423710
C           -1.06998411964454       -1.20352057454917        3.15406452802909
O           -1.98944380350550       -1.07857923193226        2.38280053009996
C           -1.16974902202389       -1.86225811134409        4.46742441387059
C           -0.06976507475161       -2.03306917696717        5.31158740689601
C           -0.22486235180626       -2.64961580437264        6.52970847841509
C           -1.48071059480778       -3.11132955614089        6.94325991756747
O           -1.51922571486526       -3.69654434782564        8.16093401972584
C           -2.75023548734223       -4.17819000086551        8.65000424778082
C           -2.57949827521715       -2.94432986802372        6.10064304767808
C           -2.41740541334513       -2.32689184530076        4.87778843262341
C            1.57213425905769        0.86482593792679        1.92011040780811
C            2.00081646602003        1.54620352612325        0.80752224988846
C            1.42622375041944        1.33990787485076       -0.44916576665000
C            1.97389713573395        2.15313223265566       -1.54993107006634
O            2.91667686224427        2.89572022816813       -1.42388442584603
O            1.28544990109772        1.99432785803731       -2.70436303960994
C            1.59611972340689        2.60206286938719       -3.88726390557720
C            0.55977908183721        2.60058166292295       -4.82723043118708
C            0.75141836664849        3.14910678051025       -6.07345993748181
C            1.98823470468329        3.70593362882413       -6.38773913549977
N            2.19375403174381        4.28493366316179       -7.68729792154943
O            1.26633109631296        4.25686066543792       -8.46989796817123
O            3.28133234046740        4.76635627735721       -7.92647396467418
C            3.02420808769668        3.70637656063663       -5.46213047055259
C            2.83471190373109        3.15315020740221       -4.21131890709768
H           -0.78848041218337       -0.99075851385140       -5.42020468814116
H           -0.18217724903374       -2.12255305159608       -4.20979117359733
H            0.38863154859570       -0.45164292757478       -4.21834053099009
H           -2.46202315820795       -1.35250810799988       -3.58006735468373
H           -1.92643082961913        0.32957266881508       -3.66365922997659
H           -0.80252817415053       -1.76027149536517       -1.74386059635641
H           -2.02440321171396       -0.52415526729424       -1.32771976669317
H           -0.80834683313534       -1.04903956423613        0.46939262494460
H            0.90122606980095       -1.68028600096997        5.00256982002051
H            0.61200227878100       -2.79092472290259        7.19506863528231
H           -2.53324323934342       -4.59264692323039        9.63296904658298
H           -3.15663672118350       -4.96494575211480        8.00730281086138
H           -3.48379859551419       -3.37263794144192        8.75085941991603
H           -3.55887207982473       -3.29038178046274        6.39014512007450
H           -3.26086825482177       -2.19077892218822        4.21796492066145
H            2.00853659213540        1.03398187344024        2.89052218632743
H            2.79478089320807        2.27374701888732        0.87795199960754
H           -0.38340630019831        2.16052460660447       -4.54799029500954
H           -0.03578018262575        3.15979467037175       -6.81148026036069
H            3.97337214778682        4.14156229112680       -5.73519318383816
H            3.63536356920868        3.15748918440533       -3.49106333649292
