54
 energy: -108.244970291683 gnorm: 0.000342323404 xtb: 6.7.1 (edcfbbe)
C            9.47569668682596        0.66146897978514        2.57557087252057
C            7.95841865683023        0.55729113518559        2.53344657964361
C            7.49307224145619       -0.69646615859097        1.78475711716544
O            6.08117340405822       -0.72753827098892        1.68428167350237
C            5.58136959629545        0.41090858885393        1.04309013906085
C            4.07453224901731        0.33350375259346        1.01134529946491
C            3.39938349546666       -0.16344987946288        2.11609574430122
C            2.01841266503542       -0.19756798494911        2.10736856059199
F            1.38211165827154       -0.70660548432017        3.16584732027506
C            1.26994912096300        0.24517719276516        1.01555038886449
C           -0.22170647361792        0.21560937366101        1.05235961637686
O           -0.88711676745673        0.49673784449734        2.00746211312617
O           -0.69587279070301       -0.15959006275893       -0.15146583995965
C           -2.03900599733974       -0.25730480977484       -0.43162462334199
C           -3.01959220718453       -0.56842456274291        0.50504076121442
C           -4.33902310470387       -0.67361288879303        0.10340360562178
C           -4.71810491476660       -0.49569184102361       -1.22350475340338
C           -6.14351311444879       -0.55561608922227       -1.59229196405310
C           -6.88371905930723       -1.70216338782639       -1.31218897638129
C           -8.22482663718489       -1.76018377569731       -1.63074204655036
C           -8.83078909971596       -0.65711404080721       -2.21848282920811
N          -10.23338013033670       -0.71206813915685       -2.54880233910597
O          -10.82792828229764       -1.74012346659901       -2.30481719365021
O          -10.73420815121811        0.27501581489241       -3.04248466908105
C           -8.10992357908503        0.49995196889844       -2.48914258687568
C           -6.76857022118501        0.54726193059159       -2.17458071164408
C           -3.70951359592680       -0.21826513614506       -2.15157950915289
N           -4.00645770034845       -0.11901290314114       -3.56343345495627
O           -4.95411101856088       -0.74704457214084       -3.98184963639228
O           -3.27329143393445        0.56851698338244       -4.23600303471782
C           -2.38583695236057       -0.08556024918003       -1.76574033001032
C            1.98455985846558        0.73875703039930       -0.07517466714486
F            1.32002205912906        1.20447366584039       -1.14064076031638
C            3.36567893918086        0.79203365064842       -0.08878268556589
O            5.92039571857794        1.59501475480974        1.71624358067164
C            7.32311662149455        1.75680618446997        1.82178209555100
H            9.89898115388066       -0.20155963837915        3.08291388718317
H            9.77711726064142        1.55954076074060        3.10840695061087
H            9.88516823614247        0.70434008601041        1.56856429997680
H            7.55609152413000        0.51464506283668        3.55039241121291
H            7.77175887083540       -1.60938811500343        2.31297379068095
H            7.93598685769193       -0.71318536943995        0.77592891104858
H            5.99239817280524        0.45553602176540        0.00852789222865
H            3.94689108824952       -0.52663455586018        2.96947837463322
H           -2.75941584406345       -0.71492218062330        1.54042950877892
H           -5.10005776037935       -0.88811902910447        0.83782255493203
H           -6.39542367378675       -2.55421685051815       -0.86490477282557
H           -8.81277701643058       -2.64359020203261       -1.43427823617389
H           -8.61090661193433        1.34058767551560       -2.94388962039135
H           -6.20066859440126        1.44362321066418       -2.37512433093472
H           -1.62551039645077        0.13644390324298       -2.49888550802866
H            3.86825206368334        1.19320368302938       -0.95426139868538
H            7.47096317628213        2.68244091101017        2.37965947347122
H            7.75973975372675        1.86609947819321        0.81594295583765
