61
 energy: -109.208808504067 gnorm: 0.000195534968 xtb: 6.7.1 (edcfbbe)
C            2.85900772666110       -3.34116162264530       -4.45805313643461
C            3.76881715358583       -2.34708377582860       -5.16279294621114
O            3.45788393061927       -1.06128397787689       -4.65738139578849
C            4.12415114851832        0.01692400561638       -5.10572914705947
C            5.10865838983337       -0.04233647121635       -6.08215461065873
C            5.78264277720695        1.09990160007940       -6.51402070807220
O            6.71426682025218        0.89044747410924       -7.47367079544551
C            7.44418076259139        1.99268657554457       -7.96266784772740
C            5.47268278738316        2.33775513087639       -5.95410125055856
C            4.50049072002841        2.40112625579123       -4.98096877037744
C            3.80997074884773        1.27430278219841       -4.53956617995769
C            2.80730028006485        1.49408573559893       -3.48337638584304
O            2.65436386152367        2.55152293190751       -2.91893821330953
O            2.06154363878978        0.39488147305433       -3.24146390472790
C            1.13198094035629        0.30061727989929       -2.23982140791102
C            1.14742315591691        1.04981028362667       -1.06726017856760
C            0.19095390145036        0.81813942430131       -0.09768583778698
C           -0.78451987687542       -0.15805077189634       -0.28198402673116
C           -1.81651449688225       -0.45140393846895        0.73381774057472
O           -2.70570187999079       -1.25227591950322        0.59076956793841
O           -1.61980336380495        0.26759860792291        1.86273052790556
C           -2.46512767478887        0.14540763170224        2.94811944090327
C           -1.86957296979066        0.19556217607140        4.20447540195095
C           -2.64803001652780        0.11597191684506        5.33955755100006
C           -4.03199232825757       -0.02952440555285        5.24409022300281
C           -4.85613305276919       -0.14633259717183        6.45269643852551
C           -4.58538490399453        0.63702014509025        7.57733050384929
C           -5.35282920914507        0.52313558190806        8.71669115328963
C           -6.40417655167860       -0.38685061138834        8.74203726203304
N           -7.20319035702851       -0.51464500048611        9.92999848495188
O           -6.92483756900215        0.19230245691758       10.87676924330325
O           -8.10968114974163       -1.32176572487799        9.91716933050939
C           -6.69115578792523       -1.17587807717428        7.63332073489083
C           -5.92026659747466       -1.05060670693981        6.49755646530757
C           -4.61311382715573       -0.06798305807729        3.97841861044899
C           -3.84394804867516        0.02831841144271        2.83477326462805
C           -0.79366683980436       -0.90470678724919       -1.46139463066225
C            0.15603813845878       -0.67937285057272       -2.43058469080063
H            3.08692924093958       -4.35051944548303       -4.78817403221406
H            1.82016636490759       -3.11849717568503       -4.68361357907903
H            3.00044415589877       -3.27434180926595       -3.38300962807630
H            3.59941681897570       -2.37892971793919       -6.24733785164217
H            4.82204619424146       -2.58537071533267       -4.96214261061712
H            5.38867522405615       -0.97452751599014       -6.54380757175439
H            8.12075106745974        1.58673218242492       -8.71281598760475
H            8.02714498666134        2.47029092137613       -7.16957609324560
H            6.78732698314304        2.73249226239166       -8.42969205768404
H            5.97586126368069        3.23816033275213       -6.26455708941638
H            4.24448368702358        3.34716333069636       -4.52844430224268
H            1.89656785280101        1.80957088534665       -0.91796450113674
H            0.20142099530794        1.39771773295671        0.81195465726766
H           -0.79713476913104        0.29204642427129        4.27106704137440
H           -2.17589937996657        0.13170037845120        6.31024047701200
H           -3.77874047503372        1.35315194575626        7.54562348977125
H           -5.15738634796003        1.12566542529451        9.59057260290176
H           -7.51099376351784       -1.87602710778538        7.68363053351530
H           -6.12503444017131       -1.67321514423153        5.64036937688507
H           -5.68572144169165       -0.14671118565164        3.88527653680228
H           -4.31001213280249        0.00389754015275        1.86341737250286
H           -1.55551310940750       -1.65807095737012       -1.59155573960573
H            0.17245064380191       -1.24864417072286       -3.34613692410427
