56
 energy: -63.630792571212 gnorm: 0.000097083174 xtb: 6.7.1 (edcfbbe)
H           -3.87129854714004       -7.55780718007451       -4.06129036333805
C           -3.07994197542647       -7.24082419453955       -3.38591879289603
H           -3.36232897481506       -7.51778842272582       -2.37240364221554
H           -2.17070742649403       -7.77877373771158       -3.64580614947938
C           -2.85794814858625       -5.73668070878665       -3.48575416426417
H           -2.59412569615597       -5.47579729241662       -4.51332120670480
H           -3.78688952941739       -5.21617398242837       -3.24138406743072
C           -1.75315684957416       -5.26087128409811       -2.54559646633730
H           -2.01531896523480       -5.52795657374712       -1.51894799396648
H           -0.82217614725168       -5.77685850652871       -2.79263162403416
C           -1.53350049855446       -3.75274572005100       -2.63242807113872
H           -1.25955407895072       -3.48525516559808       -3.65585934388533
H           -2.46893762560184       -3.23904199099947       -2.39749721381522
C           -0.44392642041337       -3.27401193198124       -1.67623811715086
H           -0.71591991598918       -3.54982173793772       -0.65446624577470
H            0.49493122294116       -3.77966634975188       -1.91474017434770
C           -0.24031196518717       -1.76249943066182       -1.75009139068850
H            0.05819971225559       -1.48695766558676       -2.76438526987765
H           -1.19056305100369       -1.26990325081748       -1.53806281389177
C            0.82299708930814       -1.28627700480478       -0.76301537843014
H            0.50489671622455       -1.53035683400498        0.25376552068532
H            1.74771816927662       -1.83657207770443       -0.95722521614431
C            1.12087046728973        0.21421611950696       -0.84921255750773
H            1.33765263751823        0.46747230678002       -1.89370968683177
C            2.34671152585467        0.56061738242202       -0.00438103767076
H            2.15910442904486        0.28609633924067        1.03428426799056
H            3.20531918190384       -0.02438556170415       -0.34441705440389
C            2.69012562728811        2.04194519678390       -0.11592039947213
H            3.56075004496664        2.26505493719649        0.50550829225938
H            2.97385777735468        2.23856493307208       -1.15360666137530
C            1.54310475113203        2.99892009136556        0.24418502426919
H            1.81664516691657        3.96474581122120       -0.20205262969132
C            1.42430970308567        3.30359611018648        1.75556958265852
H            2.44958236987144        3.36255617097744        2.14478232979943
C            0.66442072131765        2.27959464059570        2.59903269065010
H           -0.37787304341978        2.23996628805724        2.27875045676878
H            1.10237334640788        1.28904610739565        2.48332305481171
C            0.70401285565076        2.65801684133581        4.07820543416102
H            0.16799727682205        1.90898405862257        4.66634295829896
H            1.73933132713776        2.68494094670832        4.42755316783997
C            0.07705264464497        4.04017535839831        4.30231106353561
H            0.15657598159147        4.31763593799338        5.36141283711578
C           -1.32861101993192        4.00428785863257        3.97376898667585
N           -2.44127143571078        3.97411991478552        3.71111406200196
C            0.79360851865842        5.08531310154388        3.43728539620217
H            0.31501960641272        6.05992357644541        3.55956517995511
H            1.82713768904307        5.17036000549318        3.78233475143125
C            0.77443624220580        4.67762344950692        1.96710261856932
H            1.30524334002611        5.43350543684042        1.38380357557933
H           -0.25975415497192        4.65198675970108        1.61670564374975
C            0.24848770405766        2.55576254704349       -0.45152041893714
H           -0.59657875595135        3.11929197546024       -0.05229543208848
H            0.33877898761567        2.81812111569991       -1.50934049415542
C           -0.05772176144006        1.06067702780192       -0.37249788125266
H           -0.93198592300674        0.86558055541498       -0.99631161686396
H           -0.31082092326701        0.76831770211582        0.64562268054536
