51
 energy: -108.750661624836 gnorm: 0.000139762141 xtb: 6.7.1 (edcfbbe)
C            9.29950535756594       -0.55770553849167       -0.45154047758109
C            7.79753061421892       -0.42945225691616       -0.65616164841648
C            7.06407151960786       -0.13030011456701        0.65505507825320
O            5.66387977226695       -0.08827992154249        0.44866646246005
C            5.17892591752727       -1.27986262052184       -0.09954897943411
C            3.68813077708650       -1.15555194668621       -0.30934872082001
C            3.05661228896950       -1.95014229727757       -1.25523920219280
C            1.69675942377590       -1.81139571242942       -1.45688798733236
F            1.10382021284362       -2.59615293984334       -2.35917561728625
C            0.92203152062785       -0.90583298858811       -0.72786242313643
C           -0.52667460102362       -0.72510619390133       -1.02429199117263
O           -1.01429476408187       -0.79995469375017       -2.11520825821102
O           -1.20330331520572       -0.46968132209345        0.11723631368293
C           -2.51738951841903       -0.08430082998969        0.14382037755835
C           -3.17668904628569       -0.28239762077147        1.35397580723945
C           -4.47991689754029        0.14508332260574        1.49083889064996
F           -5.09420326670233       -0.07351298396608        2.66451426618140
C           -5.18851228391510        0.76708471441685        0.46039194785021
C           -6.57323420047672        1.23575577134591        0.62584806339032
C           -6.94146015497417        1.93448776661970        1.77416626942678
C           -8.23702469095378        2.38650634858636        1.91248667355763
F           -8.57122930849160        3.06525539499534        3.01601602777939
C           -9.20976420495893        2.16444702101770        0.93309642684646
C          -10.53417777533336        2.63732288012572        1.08526477008725
N          -11.60526377574413        3.02148655510305        1.20862685439567
C           -8.81132241703821        1.45585518817990       -0.20450492853061
F           -9.71097469842564        1.21283918211797       -1.16410243307389
C           -7.52092476692352        0.99669683750916       -0.36745287523420
C           -4.48686109758624        0.93187273787596       -0.73415819709167
F           -5.09200167975018        1.54867679756151       -1.76048676854319
C           -3.17701419854481        0.52947870336477       -0.91285076301077
C            1.59386410181509       -0.13530350517665        0.22263371420800
F            0.91420490071804        0.77567199460677        0.93226145662697
C            2.95370919816269       -0.24620765851328        0.43739224372874
O            5.77633858908002       -1.59462335004625       -1.32491244260790
C            7.18271288559885       -1.71646480077006       -1.21536259717541
H            9.70511061157460        0.36698834218307       -0.04931033796492
H            9.79168532290905       -0.76965243657764       -1.39710735383284
H            9.52497259252586       -1.36410796446690        0.24303938735800
H            7.58051968647357        0.38188761424911       -1.35789201462005
H            7.33265950401350        0.84876496710373        1.05417424506473
H            7.30463150873745       -0.90468090856236        1.40150642031697
H            5.38152418082234       -2.11233229714242        0.62073473569581
H            3.62060076051846       -2.65130808819833       -1.84750063331145
H           -2.66961660805044       -0.75643889545233        2.17792460600312
H           -6.23070873089981        2.14145350615076        2.55773000771490
H           -7.27035735983728        0.45275151697838       -1.26374238945169
H           -2.70070065265193        0.69867131414014       -1.86419665581856
H            3.44030645424555        0.38561694161825        1.16150679450912
H            7.53914119365226       -1.92963191384242       -2.22401073786957
H            7.43034111846021       -2.56428361837074       -0.55605140687454
