48
 energy: -71.797366258716 gnorm: 0.000693634016 xtb: 6.7.1 (edcfbbe)
H           -2.47220794849182       -7.20186366370661       -3.89326355886086
C           -2.56102793792138       -6.98337227912900       -2.83962846629126
C           -2.05963311612336       -5.80793223951738       -2.32498933126428
H           -1.56958859997777       -5.08777658022335       -2.96138703262455
C           -2.18090663905308       -5.53203993218925       -0.96401876330472
O           -1.60858923835727       -4.35403261041011       -0.53919387670670
C           -2.12714672422417       -3.62175883269804        0.48026850259861
O           -3.13821492778979       -3.91108577833693        1.06948965495300
C           -1.31536175271544       -2.42278853680140        0.74552597971141
C           -1.76571531283605       -1.52167529442360        1.70807096600388
H           -2.68547534568879       -1.74116058450414        2.22883732266130
C           -1.06024723559554       -0.37054952700799        1.99017504391539
H           -1.43451630835202        0.30653966948702        2.74135589360619
C            0.12451395722922       -0.09711759939931        1.30525377426802
O            0.89030978990434        0.99694792932709        1.48493609053890
C            0.47314080298796        2.00286693297904        2.39071167495455
H           -0.53921302788114        2.34293715638106        2.13511499123064
H            0.46567602260658        1.60400625903028        3.41434549646880
C            1.45544273472777        3.16479979244327        2.28277463659594
H            1.22602384080770        3.88734190225621        3.06789868477889
H            2.46390640514048        2.78390212797231        2.45080395987272
C            1.38424435958689        3.83752794679298        0.91369984473864
H            1.58298232214351        3.08941528435473        0.14438571641192
H            0.37387809339363        4.22203368867171        0.75296813962668
C            2.38581045155265        4.98158005775769        0.78286703316375
H            2.18460236502449        5.72953179083190        1.55387282942003
H            3.39556275988160        4.59967271388213        0.94958860050222
C            2.31666241959468        5.64179926143546       -0.59211817622246
H            2.52701371345332        4.89487086613439       -1.36110792305532
H            1.30395791108984        6.01466431449042       -0.76316121119460
C            3.30617551145364        6.79644871507015       -0.72845220475213
H            3.09616616716478        7.54383748900261        0.04025184566258
H            4.31950539967707        6.42483894846268       -0.55960587524315
C            3.22913416735971        7.44934570343484       -2.10322063006580
H            3.45672304820648        6.72544926094136       -2.88280351792321
H            2.23086243295012        7.84251044628363       -2.28363294920240
H            3.93944314427666        8.26936802150226       -2.17861347333779
C            0.58469403993855       -1.01010015974340        0.34729984201792
H            1.50651222308614       -0.78621811597275       -0.16602173508981
C           -0.12273087925215       -2.15448486899981        0.06937747860147
H            0.23998376585716       -2.84838852974188       -0.67227168747485
C           -2.79771779891598       -6.44316366362401       -0.11368727057311
H           -2.88704885424897       -6.23211252050636        0.93904454823272
C           -3.30579790772968       -7.61872239841350       -0.63064506827226
H           -3.79067871512742       -8.33034984637951        0.02069769572921
C           -3.19295650470473       -7.89598686381671       -1.99254555608009
C           -3.71412511024727       -9.10070487539182       -2.51671083662568
N           -4.13402796386265      -10.07885097798966       -2.94251710209982
