51
 energy: -99.638387612848 gnorm: 0.000133305057 xtb: 6.7.1 (edcfbbe)
C            1.18813331431921       -1.87575556561463        8.74290253133746
C            0.86229889752445       -2.74865938999001        7.53815024721765
C           -0.61029779069157       -3.15191928962666        7.51455344898119
C           -0.94976377412951       -3.99541424058685        6.29142278958376
O           -0.81404669531050       -3.19573501032505        5.13662363850344
C           -1.05301325413068       -3.89455844295499        3.94697021640269
C           -0.88869344858874       -2.98955173219805        2.75891724159090
C           -0.91737813404789       -3.52468896758158        1.47460572596497
C           -0.77026240867639       -2.69298991738147        0.38607810570287
F           -0.79723902925332       -3.22330353165072       -0.84885292189968
C           -0.59076760952262       -1.31118514775060        0.51766172962839
C           -0.43248003080057       -0.47676965329704       -0.60277092983404
C           -0.28975741208073        0.23591375114599       -1.56729154859452
C           -0.11316015164583        1.06180473504924       -2.69250634374851
C            0.02357629666088        0.49628515065419       -3.96171988384303
C            0.20198108132939        1.32107533675027       -5.05064581658724
F            0.35491667207751        0.75043299558855       -6.25901997989638
C            0.26381055170726        2.71399594232409       -4.95118586435249
C            0.47150866872438        3.57245329211096       -6.12624416473312
C           -0.24011779724151        3.33931274274822       -7.30186531681082
C           -0.03123495448121        4.14879044094584       -8.39844292041610
F           -0.72842468125274        3.91634744745347       -9.51685761145757
C            0.88218072613279        5.20718692028091       -8.37772665562970
C            1.09126719878991        6.02699241884299       -9.51101829792587
N            1.26106239654337        6.68988048491971      -10.42864246632965
C            1.58036423407877        5.41605443335562       -7.18450332729583
F            2.47010721001517        6.41363103999588       -7.12024100168251
C            1.38644628119087        4.62273956511047       -6.07349563319795
C            0.12250714547951        3.23667732003939       -3.66246993496020
F            0.14398598080903        4.57161253592929       -3.49944755252594
C           -0.06701774934532        2.44963536017641       -2.54761501265552
C           -0.57039501432745       -0.81038681443956        1.82327687389214
F           -0.40165766656314        0.51055358592579        2.00045565888819
C           -0.71514778106585       -1.62266220698711        2.92853326416338
H            2.24061180787894       -1.60305932384207        8.74273008517828
H            0.97084329309099       -2.40502245401814        9.66834392246667
H            0.59728904692693       -0.96287425966648        8.72444153110502
H            1.48138150068709       -3.64857351916151        7.56285076315063
H            1.09224666669799       -2.20934130081960        6.61831892561688
H           -1.23256989423059       -2.25592548043344        7.49855533084689
H           -0.85464335038460       -3.72425184960210        8.41129462188186
H           -1.98216824177146       -4.37427350543035        6.36186303046783
H           -0.27384194173544       -4.86306332410783        6.22741938875125
H           -2.07749068525654       -4.30969913850949        3.94545820959481
H           -0.35878206184131       -4.74806994628607        3.85616932513508
H           -1.05113902882760       -4.58305620203323        1.31465781474504
H           -0.00476821327215       -0.57324668408335       -4.09578873305918
H           -0.96084285354549        2.54080550435151       -7.37356535153411
H            1.95780970693138        4.82604024477675       -5.18218847250078
H           -0.17763759433702        2.90796171258318       -1.57788428397328
H           -0.68963942924629       -1.20214606266750        3.91975560464514
