54
 energy: -104.803011507922 gnorm: 0.000226056356 xtb: 6.7.1 (edcfbbe)
C            5.30990984419682        5.33912890958849        0.76346222729539
C            3.93741610968346        6.00090282385471        0.73249944489328
C            3.00977661587434        5.30735671844905       -0.26219645526718
C            1.62804447033921        5.96207507917918       -0.35429467661238
C            0.74855334453758        5.58999306222668        0.84723954603791
O            0.41559303451834        4.21470060374110        0.82356869604828
C           -0.24602236518480        3.85944246676932       -0.36025958434881
C           -0.52974746007825        2.37992774641147       -0.30497194619275
C           -1.82638835500840        1.89223285144562       -0.29466737040357
C           -2.03596106711859        0.52748928531980       -0.23751588442689
F           -3.30516253317639        0.08256783831378       -0.21065380553442
C           -0.99532701338011       -0.39864676718170       -0.17757998717198
C           -1.24019494116996       -1.84794834181196       -0.10545845931703
C           -2.17230873052818       -2.44881328499616       -0.94649774956335
C           -2.39394102902612       -3.80760612362574       -0.85871741983478
F           -3.28154612180642       -4.35919193236870       -1.70392844879157
C           -1.71731066055680       -4.63258495786108        0.04111055030866
C           -1.96826274871482       -6.07954176521069        0.12110973908068
C           -3.27471163187065       -6.56430840928149        0.12945704588084
C           -3.49775930003875       -7.92280281703544        0.21133253480562
F           -4.75801122444251       -8.37202256569218        0.22900026205544
C           -2.44907981135054       -8.84483689818784        0.28217031202805
C           -2.69107689803521      -10.23585852846053        0.36601615044254
N           -2.88708355455521      -11.36148172219953        0.43454508819452
C           -1.15015519576987       -8.32769350606441        0.26756251488198
F           -0.11521958449636       -9.17378022183383        0.32501748218974
C           -0.90148135750217       -6.97332232163101        0.19141825719182
C           -0.78808173463143       -3.99201643980218        0.86234868453370
F           -0.11959751958145       -4.71775355069280        1.77490165384900
C           -0.54430982879192       -2.63532194871671        0.80732583099271
C            0.29264646106757        0.13956657878183       -0.18749480455950
F            1.34395305161611       -0.69789064337318       -0.15525634570472
C            0.53771865474106        1.49582692839604       -0.25487304257805
O            0.53231974616203        4.11306833728830       -1.49757833424874
C            0.87219130789527        5.48240091551367       -1.60124976585574
H            5.96114699085621        5.84294143277559        1.47362228091060
H            5.77643277149643        5.37993191663186       -0.21843236707652
H            5.22321240847867        4.29574027079831        1.05795028349133
H            4.04700397338791        7.05128951707646        0.45156855414672
H            3.50275910026303        5.96862694478394        1.73318683097296
H            2.88173226685679        4.26206571850278        0.02411755841509
H            3.47564436361269        5.32740146945311       -1.25016337137175
H            1.73360514780714        7.04980866782479       -0.40120545190874
H           -0.17405435056612        6.19214659492576        0.83370436623687
H            1.26304683519153        5.74949690390418        1.79475097999461
H           -1.19393293798464        4.43969717103101       -0.43272308636974
H           -2.67765274072436        2.55301647697239       -0.32839771910686
H           -2.72229999876257       -1.87607001272715       -1.67543269563816
H           -4.12113925297146       -5.89828682836752        0.08252839677795
H            0.12038165040881       -6.63005553721464        0.17938051958187
H            0.17745922933694       -2.20649292362445        1.48335759124323
H            1.55039636426069        1.86133263932933       -0.27154865556181
H           -0.04577023871799        6.07845097716798       -1.73170875510447
H            1.48269644395601        5.56571120150390       -2.50149719993155
