41
 energy: -90.511487017725 gnorm: 0.000113586204 xtb: 6.7.1 (edcfbbe)
C            7.11592117258901        1.08429015794361       -4.48480608744296
C            6.00186791018158        0.77953346633960       -3.53685646862228
C            4.68530705594319        1.12673988027881       -3.82538383268036
C            3.66505241020412        0.84138735280231       -2.94226805160280
C            3.91862171108023        0.19551904182607       -1.73070126153229
C            2.84261722560262       -0.11272845434635       -0.76334025167334
O            2.99868899246469       -0.59394633835761        0.32426672805948
O            1.63158024762382        0.22654373781009       -1.28888481997686
C            0.43262776764184        0.10577537138568       -0.64209778853597
C           -0.68517879219905        0.39626160302587       -1.43135914835309
C           -1.94623377928796        0.33311120785567       -0.89082809451649
C           -2.14827421962576       -0.02186939174998        0.44678662280265
C           -3.54634648560827       -0.05452685545644        0.93842736365152
O           -4.49090720159016        0.25956296359063        0.26062709315755
O           -3.60895235812573       -0.47959294907261        2.21451466522600
C           -4.75203999170796       -0.60460212216820        2.95642625623355
C           -6.02535430893697       -0.22817387517396        2.54850009409685
C           -7.08648556189632       -0.40750405937278        3.41949016213685
F           -8.31250208051815       -0.04360836739448        3.02653417045676
C           -6.91165978155115       -0.95195482997827        4.68587858589444
F           -7.95059192714321       -1.11767867932645        5.51324169891682
C           -5.62539911154052       -1.32033969289349        5.07215419064691
F           -5.42790952126486       -1.84635197230209        6.28612723669672
C           -4.55165899602983       -1.15156208881310        4.22329248078763
C           -1.01877539693119       -0.30842506422687        1.21228937321234
F           -1.12893761806983       -0.64950868279024        2.50261447572078
C            0.26190000559356       -0.24798978967617        0.69019681319154
C            5.24569688075667       -0.14780331703435       -1.45233692658838
F            5.56190033126164       -0.77229003439846       -0.31333350985263
C            6.26954211818387        0.13570747277523       -2.33466742674833
H            6.74632982919324        1.57889182205656       -5.37854261400399
H            7.62387814020179        0.16634518506921       -4.77627531579802
H            7.85120455481201        1.72917247950113       -4.00599258912735
H            4.45897293248623        1.62784035920548       -4.75443298380368
H            2.65163120010070        1.12026421037481       -3.18161917897396
H           -0.53515247088860        0.66945966460557       -2.46327094784247
H           -2.81713229102014        0.55687056940011       -1.48734434636125
H           -6.20944750450151        0.19552576759190        1.57496967726893
H           -3.55965397356987       -1.43671564520600        4.53300954082036
H            1.09857362428538       -0.48089352543671        1.32821015065101
H            7.27667926180082       -0.15073657826343       -2.07322573559121
