47
 energy: -53.674990840605 gnorm: 0.000147618348 xtb: 6.7.1 (edcfbbe)
H           -2.87767515620193       -3.19041632595274       -4.87744767989999
C           -1.87103791571249       -3.18417012693024       -4.46269455546057
H           -1.71013734447140       -4.11389932715302       -3.90498342801179
H           -1.14175670026049       -3.13442449209107       -5.28154833227388
O           -1.79039322619619       -2.05074601234474       -3.64076404772337
C           -0.49262363814158       -1.75305975304073       -3.15267117297602
H            0.22829163189221       -1.80785040735147       -3.98804901899623
C           -0.03747864705804       -2.70290501604197       -2.04244968958872
H           -0.77670692493870       -2.68583027247982       -1.24192478259441
H            0.01794321322163       -3.72575137701888       -2.42257527833023
C            1.33961721743073       -2.29432784879570       -1.53141126092119
H            1.64820264795636       -2.97557370723688       -0.73541548820009
H            2.04869070479296       -2.41539058686011       -2.35584644906795
C            1.44008543006808       -0.84461225320257       -1.03235956433151
H            2.51446389080299       -0.61598795349979       -1.01779448109890
C            0.99051640968465       -0.64854056154469        0.43461173376183
H            1.30018776675157       -1.54898913790674        0.98061184977709
C           -0.50584879892006       -0.45518885643340        0.67537865015369
H           -0.84593792832290        0.45866470750996        0.18959436424965
H           -1.06995693731549       -1.29170719801103        0.26412714025679
C           -0.79955560909572       -0.36500999620772        2.17181028794990
H           -1.87603247309342       -0.25982321685572        2.32628723160235
H           -0.48791380325330       -1.29750857516166        2.65028966530336
C           -0.06525226926057        0.80078930398624        2.84075969156559
H           -0.21069807045237        0.71185216479433        3.92491102745465
C           -0.64371040416989        2.15647170828848        2.41753855530733
H           -0.35472375204575        2.38989878370511        1.39268891246790
H           -1.73463851994385        2.08966104532922        2.44292312937102
C           -0.21134443682080        3.30589229884082        3.32587633149992
H           -0.48283674136764        3.07291261527241        4.35839104414990
H            0.87324889663015        3.42272051089018        3.28743230910540
C           -0.86682976337652        4.61926060431406        2.91558890273749
H           -0.59258900293747        4.88067498058766        1.89559130063004
H           -1.95061021615602        4.53794673755509        2.96698515698406
H           -0.55219968441653        5.42711630048116        3.57238190503654
C            1.43214156753439        0.66405576165028        2.55110298580806
H            1.97444548869568        1.51677433752373        2.96293082067474
H            1.80046765954129       -0.23190066854436        3.05797797155014
C            1.73369277676105        0.53797926141287        1.06012720794979
H            2.81128284630472        0.40752778246730        0.93137847521479
H            1.45438549999969        1.45827477887107        0.54514123742978
C            0.81367356988723        0.11095190996587       -2.05859629488160
H            0.72028610694199        1.10773544269044       -1.62519411951408
H            1.50521192203662        0.19017914346851       -2.90229352153454
C           -0.54103586372323       -0.32814393401678       -2.60862299793469
H           -0.84117380562559        0.34591998970533       -3.41333205662146
H           -1.31611761358311       -0.29151256464104       -1.84646366797042
