48
 energy: -99.595545409391 gnorm: 0.000131498483 xtb: 6.7.1 (edcfbbe)
C            2.69824714192803       -4.82185169561801       -6.76520501838543
O            1.93163731820602       -5.35124338725193       -5.70654897922908
C            1.50754255064781       -4.52309956325320       -4.72739888264051
C            1.76960793439515       -3.15409546537718       -4.66553887294111
C            1.27447798620364       -2.42109950843277       -3.61034837356803
C            0.51677989816517       -3.00249786887030       -2.59426429405982
C           -0.00201432475770       -2.20719594616095       -1.47918978936061
O           -0.62417353714923       -2.60889645168357       -0.53434540047846
O            0.30767915788123       -0.87400894847746       -1.65930947467360
C           -0.01530384044371        0.11267643514767       -0.78268978814279
C            0.08964775837696        1.40846814345108       -1.29366413081022
C           -0.19299019097909        2.48747349900399       -0.48592465917923
F           -0.05908084579505        3.71243557039428       -1.00038672438322
C           -0.57369297875603        2.34289652378329        0.85157048305930
C           -0.90894742546177        3.53469518920939        1.67956834713718
O           -1.43001018701595        4.52949290579409        1.26091813443419
O           -0.55640443900649        3.31086679467215        2.96110193429769
C           -0.78004170123501        4.19317502171865        3.98891360350822
C           -0.91712168255148        5.56987313225771        3.83544436680654
C           -1.10499884391171        6.35648441338428        4.95546893326703
C           -1.14962301370013        5.77121678227611        6.21419219039264
N           -1.34480516928054        6.59927737556773        7.37663776053855
O           -1.47091468599051        7.79261747831124        7.20375057604412
O           -1.36949926901584        6.05243426014155        8.45874597042979
C           -1.00587639033177        4.39574189143865        6.37098860342992
C           -0.82052752148327        3.60904489268033        5.25700727636176
C           -0.65838346738225        1.03374482795056        1.32676021413545
F           -1.04125475276064        0.81527642899777        2.59075351498476
C           -0.39046486388757       -0.07314470039512        0.54436297066632
C            0.25263589614173       -4.39495630936606       -2.65402500677087
O           -0.47681619289527       -4.92518729263300       -1.66348782388655
C           -0.77074367544025       -6.30353773474624       -1.67794780465169
C            0.75350695918259       -5.12629722126446       -3.72158927879886
H            2.91647398362248       -5.66482520257457       -7.41848490604600
H            3.63673326027286       -4.39166439349682       -6.40356708926631
H            2.13971140361681       -4.06555605677876       -7.32434243622599
H            2.35101156303010       -2.66103124347968       -5.42674803332116
H            1.47843453066262       -1.36378375880787       -3.56285683593136
H            0.38812638716207        1.56280698320526       -2.31748142749642
H           -0.88576045975832        6.01973972604820        2.85724434931170
H           -1.21626247752414        7.42631350065347        4.86739495845667
H           -1.04497815732601        3.96894544440636        7.36129647521545
H           -0.70881281133026        2.53954820333563        5.33480025654160
H           -0.49260360962836       -1.05755238590082        0.96983934872025
H           -1.36332548601365       -6.48011142509489       -0.78222373894977
H            0.14002178918512       -6.90838319568754       -1.63666081878715
H           -1.35475852441059       -6.58009182994656       -2.56083340492625
H            0.57790500654543       -6.18517383851866       -3.81168727482995
