51
 energy: -74.961835254097 gnorm: 0.000109053508 xtb: 6.7.1 (edcfbbe)
H           -3.31949713071440       -7.67823567580160       -4.41129925841232
C           -3.48614182269005       -7.27109816043147       -3.42527589589006
C           -3.08590541115053       -5.98822649141440       -3.12198045482328
H           -2.59917414952372       -5.36924137382645       -3.85940161848445
C           -3.30653191879198       -5.46983876903744       -1.84708657032192
O           -2.82559269241524       -4.19953419726081       -1.62188252102992
C           -3.45389990069456       -3.32654364649663       -0.79269889017771
O           -4.50172493149259       -3.55885147714281       -0.24385840903578
C           -2.70698101484062       -2.06387436357753       -0.67446341659651
C           -3.24578581983846       -1.05171774848613        0.11702898246559
H           -4.19087850364434       -1.22933653221175        0.60752946151052
C           -2.59187758308842        0.15237191390426        0.27463995391812
H           -3.03584639786529        0.91622140508832        0.89282847391952
C           -1.37076455979509        0.36814795533786       -0.36541250003931
O           -0.64128294480446        1.49836365722106       -0.28478556977129
C           -1.09902677646885        2.56957558978612        0.52095943795557
H           -2.06168216491324        2.93792025549413        0.14104760282031
H           -1.23287511313934        2.23021991411524        1.55685325032206
C           -0.05243362371010        3.67756984116431        0.46566196292032
H            0.12535057828940        3.93528546392639       -0.57950726266005
H           -0.45220486786853        4.55749531351423        0.97277049156591
C            1.26077997337003        3.24959792573176        1.11663308353431
H            1.07902908997816        2.99678187840889        2.16415262715231
H            1.62540538693740        2.35178347218232        0.61500159922254
C            2.32124827207439        4.34421155208899        1.03839538075443
H            2.49983200270052        4.60070494515534       -0.00825649036048
H            1.95243327271762        5.24240496158172        1.53979264376318
C            3.63569794879800        3.90996515010802        1.68233486952083
H            3.45664808103852        3.64917976015183        2.72821921632617
H            4.00454814417106        3.01357038781302        1.17835070211761
C            4.69959919392907        5.00237815180852        1.61102508655019
H            4.87764671282326        5.26538211025956        0.56559456123776
H            4.33229745508727        5.89789651396845        2.11808228776787
C            6.01538908089139        4.56605453314864        2.25090601425913
H            5.83712215118811        4.29959336386685        3.29529852547680
H            6.38514200026931        3.67335715235985        1.74116176456568
C            7.07111249630688        5.66250184741806        2.18158202682769
H            7.27661680737638        5.92918876029239        1.14708688229078
H            6.72946115262880        6.55442800833029        2.70248746570726
H            7.99924008378745        5.33104218250767        2.64133849690337
C           -0.83002385193246       -0.64868710016434       -1.16349337824000
H            0.11384394571548       -0.46275502886085       -1.65119576208422
C           -1.48560004899209       -1.84617591470054       -1.31667657425456
H           -1.05854525465148       -2.62246845490818       -1.93156875392721
C           -3.92197789145858       -6.24419355307341       -0.86969671181361
H           -4.08794847934165       -5.84463202263226        0.11712823827448
C           -4.32862072361623       -7.52799158793549       -1.17525922776656
H           -4.81051973955756       -8.13558530181778       -0.42401935667641
C           -4.11572034224054       -8.04855014817978       -2.45122200981482
C           -4.53196520698737       -9.36404708522537       -2.75773748794930
N           -4.86740496384944      -10.43160933355019       -3.00711296951880
