53
 energy: -102.604093639007 gnorm: 0.000314800034 xtb: 6.7.1 (edcfbbe)
H           -3.39510527141496       -7.77661433141623        3.25415312230034
C           -3.29559025327712       -7.57901537508430        2.19694363601271
C           -2.68141254616658       -6.42709417514018        1.75306911027398
H           -2.31117664821757       -5.71021175577541        2.47043686993721
C           -2.55733939509084       -6.16167953840626        0.38838242520177
C           -1.90653833588285       -4.93161594512721       -0.07677954360585
C           -0.77968692392128       -4.41794760282213        0.56571783875094
H           -0.35758362689872       -4.94221973083230        1.40911091510973
C           -0.17649339997292       -3.26502996268340        0.11912958447836
H            0.69996005345668       -2.87310439392046        0.61017677318238
C           -0.66359453030687       -2.55217856427796       -0.98259892646388
O            0.02359657939722       -1.43512378236230       -1.30275211521870
C           -0.38163128191084       -0.62485271090922       -2.39585040463722
H           -0.33022979869557       -1.19792333655940       -3.32938328300960
H           -1.41108563541794       -0.27689889471626       -2.25104690870416
C            0.56665813084439        0.56687344110722       -2.46004351331520
H            1.59114652434050        0.19473643604167       -2.50750334471037
H            0.35966950536268        1.12239504718531       -3.37593652242701
C            0.40935090307408        1.48040293107567       -1.24675182117205
H           -0.61910365475540        1.84523353717026       -1.20144961717978
H            0.59925487051240        0.90104841004610       -0.34224470532072
C            1.36435493863946        2.66949918452038       -1.30358116617946
H            2.39338745944793        2.30694204191316       -1.34721894846327
H            1.17655187339860        3.24110053788881       -2.21527223663787
C            1.19801922411585        3.58052587163644       -0.09055653047070
H            0.16998829422648        3.94047570086808       -0.03102378914508
H            1.40984654284208        3.02727535495148        0.82518974922041
C            2.13236611217383        4.78152496192205       -0.16539802890369
H            3.17607029086501        4.45099936964411       -0.20787993661628
H            1.91292265799634        5.37845478650245       -1.05733729665047
O            1.91063283246258        5.55547876279602        1.01112544931206
C            2.57670836592571        6.69073962331728        1.23245359314165
C            3.54258180230339        7.29774773010479        0.42209852293376
F            3.92185571797637        6.74909561263565       -0.74758621159426
C            4.15516187332692        8.49450990671403        0.78697487792467
F            5.06914822979118        9.02888169986391       -0.02458893164376
C            3.82563064239936        9.12825875100294        1.97642469612274
F            4.41527636752913       10.27496754683906        2.32173131193825
C            2.86786094680393        8.54689107511838        2.80463435579253
F            2.53379108622969        9.13518454495642        3.95330265780738
C            2.26401104361534        7.35718750456303        2.43282139409100
F            1.34606260903409        6.80883087265234        3.23553009752556
C           -1.79180460375375       -3.07847335500731       -1.61378469758479
F           -2.35333538315177       -2.46967134983717       -2.69231365800604
C           -2.39777351304749       -4.24034076752681       -1.17789248270136
H           -3.27811378242686       -4.57849415664193       -1.70204035448244
C           -3.06473688861183       -7.08741885887214       -0.52472287056403
H           -2.95753263204360       -6.90508026986743       -1.58340099832628
C           -3.67738572476575       -8.24471464660488       -0.09311512075869
H           -4.06356705542079       -8.96036753689720       -0.80397173619876
C           -3.79797689292517       -8.49766298872330        1.27411221830950
C           -4.42673763026430       -9.68078402022048        1.72256456756931
N           -4.93634006974378      -10.64078319280132        2.08793193375737
