48
 energy: -95.367054076469 gnorm: 0.000351165405 xtb: 6.7.1 (edcfbbe)
C           -5.20912656031023       -0.62637623661982        7.25126985155346
O           -5.24076439258260       -0.26944945306452        5.88888069202367
C           -4.10300460505153       -0.32789744347703        5.16166194597212
C           -4.21852412160306        0.05053605775498        3.81921432153284
C           -3.11448916374049        0.02495886038793        3.00619193205275
C           -1.86220489183213       -0.37252273156631        3.48358321039599
C           -0.68447867565457       -0.37928734124485        2.60726276236365
O            0.44847056987343       -0.62674374182084        2.92234323553571
O           -1.04649598665771       -0.07905129339596        1.31809510937871
C           -0.13004891645876        0.08986104088597        0.31548881121206
C           -0.57634641805163       -0.22345200253158       -0.96990784464107
C            0.24392708245699       -0.02914361234639       -2.05824966300595
C            1.52956460160700        0.48350034066879       -1.87775424028047
C            2.44842139678995        0.73131633424422       -3.00023697966942
O            3.54351353268964        1.21765226487699       -2.90421237444383
O            1.90751179481827        0.31615125291313       -4.18566129293352
C            2.51943447976755        0.49585243611541       -5.39129994643976
C            2.15832068458221       -0.40906158392122       -6.39476021658850
C            2.68437066974253       -0.28072706564910       -7.65737306190682
C            3.57432875828335        0.75002949223781       -7.95920386246617
N            4.08768108144405        0.84352081941867       -9.30635132556834
O            3.87331614047010       -0.10136859929164      -10.03623200954071
O            4.68229288263841        1.84392166501496       -9.62759288369427
C            3.92539795099955        1.64845475312740       -6.95126646730109
F            4.77814570235432        2.64419160617647       -7.17729744904444
C            3.40580618730298        1.52833837925083       -5.67306704816593
C            1.96817837890262        0.79583752148975       -0.59082298053835
C            1.14946153045263        0.60607769257907        0.50286842073142
C           -1.74273430503159       -0.75630524173575        4.83782019451303
O           -0.52754427312396       -1.13597585286981        5.26234489152362
C           -0.34206329078142       -1.53478114074642        6.59960213125586
C           -2.86901148139201       -0.72846568931613        5.65890536229833
H           -6.22767728931888       -0.49484215112099        7.61227247682005
H           -4.53796061424853        0.02364510856312        7.82105388584294
H           -4.91098182145851       -1.67067776816159        7.38612926597978
H           -5.18338817725055        0.35881556551063        3.45246083590169
H           -3.20420416280326        0.32041781876108        1.97360691399515
H           -1.57421046883774       -0.61591468655467       -1.08873610465916
H           -0.10519321815011       -0.27077373329814       -3.04950250796331
H            1.46623154335430       -1.20059163506505       -6.15821115104454
H            2.42251211477062       -0.97149482438590       -8.44444972976017
H            3.71145213275063        2.23519947784596       -4.91934827187803
H            2.96284018882665        1.19587706749894       -0.46697604363194
H            1.49874816363756        0.84940360691807        1.49241790501503
H            0.71350638988821       -1.78817466888702        6.67916596673751
H           -0.94403925624074       -2.41542257179771        6.84601997714477
H           -0.57188188079106       -0.72423117427272        7.29870614632194
H           -2.77706998702326       -1.02082691909252        6.69118720906858
