28
 energy: -42.903995039443 gnorm: 0.000194057285 xtb: 6.7.1 (edcfbbe)
H           -6.47014153090563       -1.36945462061381        1.68410343243293
O           -5.50168631468981       -1.35037659527355        1.72366789795507
C           -5.02740464824707       -0.65323862433763        0.67392066579374
O           -5.76858609755513       -0.16140089784216       -0.14336110318408
C           -3.55892481408325       -0.56482393628877        0.64126117279064
C           -2.95236169101068        0.13244307209252       -0.40026345365004
H           -3.58096264445274        0.58670506458849       -1.15115054793721
C           -1.57897309026030        0.24294249454711       -0.47535724533383
H           -1.13766629894253        0.78935924697744       -1.29375326293472
C           -0.78117814026423       -0.35025780315105        0.50314882687185
O            0.56859056767911       -0.31044506049425        0.53505462682164
C            1.27126097448831        0.37335565435914       -0.48579692872262
H            1.04091711113833       -0.06818314267492       -1.46510997882187
H            0.98060597393246        1.43278438047000       -0.50129788169897
C            2.76062357216382        0.24140775462330       -0.18760831662410
H            2.95675415100920        0.66385338125945        0.79927452903066
H            3.01549112585890       -0.81908401204918       -0.15164481057023
C            3.61621773145121        0.94716130938289       -1.23556152208140
H            3.40660762371144        0.52300503087374       -2.22013858028560
H            3.35011983761186        2.00612102491482       -1.26752654085053
C            5.10180851243172        0.80620894814979       -0.92818406706939
H            5.33315450551457        1.24009650841083        0.04178730678462
H            5.38958703103995       -0.24237516585558       -0.91105601832021
H            5.69772511847056        1.31376993338845       -1.68260652280004
C           -1.39147884916584       -1.05100869082467        1.55087322521094
H           -0.75632765197620       -1.50176036959878        2.29699573333335
C           -2.75968737125795       -1.15787937145612        1.62067069369297
H           -3.22411469369017       -1.69891551357743        2.42966867016641
