38
 energy: -55.343871609422 gnorm: 0.000214161980 xtb: 6.7.1 (edcfbbe)
H           -5.21988146139912       -4.08131221156220        0.27523639747543
C           -4.18540437047090       -4.02349319034370       -0.02803034472761
C           -3.52026948282683       -2.81565332650632       -0.02506884847983
H           -4.04271505452008       -1.91890706405695        0.27187001941085
C           -2.18548573955902       -2.71297326021747       -0.42103353747711
C           -1.49940466868415       -1.41440314335068       -0.41251935946093
C           -1.67288805400769       -0.54145653119240        0.65989841760294
H           -2.28576161327592       -0.84029716678107        1.49808064899685
C           -1.04341223333865        0.68675302691314        0.67236727940041
H           -1.18266651340502        1.34949328156651        1.51457351019957
C           -0.23484656097764        1.08550110247761       -0.38574918735914
C            0.47826929122572        2.40372251074555       -0.34787730413778
H            0.62577228150892        2.77817953085819       -1.36285986828324
H           -0.11802284322721        3.13424853919859        0.20298002863814
C            1.84320949871646        2.25402407782775        0.33545443347139
H            1.69635547176001        1.86393650862527        1.34535659593754
H            2.44069344221547        1.52395384733986       -0.21529839455931
C            2.59234499960207        3.58152325778957        0.40477012791868
H            2.73909466752023        3.96807173150992       -0.60676758753682
H            1.98806416268506        4.30970752041196        0.95156507539444
C            3.94902564585876        3.43891757628626        1.09040458887237
H            3.80335621819185        3.04718662343755        2.09976347439385
H            4.55661955894731        2.71646971917912        0.54071707563210
C            4.68728688106063        4.76969448050463        1.16538648660463
H            4.85909422689033        5.16740993334004        0.16743131942223
H            4.10567712728919        5.49743085704496        1.72741156596397
H            5.64988463792612        4.64703845450010        1.65629780841083
C           -0.06433514591516        0.21329295827314       -1.45358037132771
H            0.55938488435193        0.50661608103484       -2.28568651391028
C           -0.68337102898627       -1.02120359679320       -1.47033335053987
H           -0.54691191015303       -1.67532288486496       -2.31808623091689
C           -1.54703823073430       -3.89119292761239       -0.81421895627487
F           -0.24880712236836       -3.85992409022431       -1.17764316684048
C           -2.18358469169936       -5.11450514764397       -0.82356588467584
H           -1.64682879462977       -5.99946836880952       -1.12893457076160
C           -3.51897153450275       -5.18214895144683       -0.42954856496497
C           -4.19471404818062       -6.42376411191128       -0.43577572190334
N           -4.74881189288727       -7.42717564554829       -0.43698708961424
