63
 energy: -111.194867176093 gnorm: 0.000301371616 xtb: 6.7.1 (edcfbbe)
C           -3.19638882608345        5.60800041786335        0.24398409749025
C           -3.11539588306617        5.23433787981517       -1.23165368615328
C           -2.27194093496536        3.98574223048223       -1.49059507977279
C           -2.90108770202603        2.70733448740894       -0.94094696642524
C           -2.06359962381425        1.48227904322046       -1.29777599520913
C           -2.66838806612698        0.20555659607466       -0.71193570415643
O           -1.94245727433718       -0.95935475648516       -1.06879988420984
C           -0.75455907615573       -1.22087989794906       -0.51996393880109
C           -0.19259314538518       -0.47218894288695        0.51662372360288
C            1.05472880719485       -0.79261980353138        1.02039338036157
O            1.64643506349400       -0.09111290779727        2.04542432615183
C            1.50678208189285        1.25299252274053        2.17428075104027
O            0.90096452678860        1.94479418357127        1.39328281161475
C            2.20697427003112        1.75535738468535        3.36720821377499
C            2.19558678020381        3.12718397858804        3.61059747861436
C            2.83214891736389        3.65908739991414        4.71267784614333
C            3.49914733179316        2.81594961466642        5.60145933619402
O            4.15525023352154        3.22128772983778        6.71078837700115
C            4.18595044922067        4.59500463292272        7.02534381553009
C            3.51082095022901        1.43664511543489        5.35824473946322
C            2.87536323026775        0.91238998162050        4.25873409167499
C            1.76017915570960       -1.89281797734586        0.53367154865753
C            1.20222081260933       -2.65539179514539       -0.46394806060303
C           -0.04394403484903       -2.34189922780071       -1.01258414900612
C           -0.61848109554662       -3.15122759835171       -2.09481872608128
O           -1.64143356444743       -2.94522142778759       -2.68703413100769
O            0.18125261344098       -4.24401161929869       -2.34901002539729
C           -0.06872635260262       -5.14729410569325       -3.33609143543583
C           -0.81199699058656       -4.89589115500919       -4.48998010604085
C           -0.95218050820270       -5.89048032163812       -5.43321628571947
C           -0.36795830550598       -7.14318395415834       -5.26353382233771
N           -0.56524196575540       -8.14410484100344       -6.28415822003097
O           -0.99808823477600       -7.75804456394745       -7.34977992615088
O           -0.30149748915156       -9.29329646949768       -6.01994191291375
C            0.38409136595779       -7.37995270499799       -4.11051276812023
F            0.99792401686266       -8.54488464522600       -3.90568044849722
C            0.53467743799347       -6.39276459983914       -3.15843624818943
H           -3.72310831187903        6.55183964486174        0.36601420290709
H           -2.19812652250145        5.71510870174825        0.66265776152123
H           -3.72858105430944        4.84926144505453        0.81166186165139
H           -2.67509320419775        6.06927691850050       -1.78171121136122
H           -4.12324864165639        5.07712424256044       -1.62279554635432
H           -1.28479682580081        4.11821726246626       -1.04278610792125
H           -2.13458338876161        3.87270003816437       -2.56866808500244
H           -3.90925538350443        2.59284370575683       -1.34610256087363
H           -2.98174362103849        2.77671731022138        0.14499750427538
H           -1.04790179217238        1.62122816048141       -0.92306245357210
H           -2.00587248555011        1.37063004221339       -2.38220423410341
H           -3.66106182571088        0.03571078979305       -1.13713533396462
H           -2.76949597229860        0.28343379499784        0.37746328091279
H           -0.71807445013325        0.37147707210938        0.92804001302452
H            1.67681186108365        3.77011747727395        2.91571718604078
H            2.80575015317775        4.72508875963765        4.87295138353984
H            4.76029706932363        4.67177272053673        7.94692100605366
H            3.17939152679803        4.99017696031467        7.19227170052118
H            4.68150472005142        5.17469056078195        6.24077017180405
H            4.03186114120371        0.80256692421653        6.05786474254462
H            2.88919259408689       -0.15103911486777        4.08063571235510
H            2.72802386017837       -2.12480107788556        0.94664471034359
H            1.73805669606846       -3.50889092392722       -0.84577273060506
H           -1.28265178992499       -3.93912135754767       -4.63865884548965
H           -1.52411332340761       -5.71743395740742       -6.33243192897571
H            1.12231999961502       -6.58602598354441       -2.27560921631156
