47
 energy: -93.658906715804 gnorm: 0.000241207441 xtb: 6.7.1 (edcfbbe)
C           -1.76890327403070        8.03094662973797       -3.64175320351930
O           -2.39603713425562        6.89027438863566       -4.18235077247890
C           -2.10597563131778        5.67470607984138       -3.66891795181236
C           -2.76862876510487        4.59049414054225       -4.25808152852499
C           -2.54400190975353        3.31222959107498       -3.81042312561199
C           -1.65370606966531        3.07558957536924       -2.75849847143678
C           -1.44796408864726        1.68673460961836       -2.31623293381461
O           -1.94739329119188        0.72072628966213       -2.83693087915113
O           -0.63911827617205        1.63131981042351       -1.22627120595451
C           -0.26592910558683        0.45487118523721       -0.62310833008113
C            0.01759568729843        0.53951058952698        0.74065995394988
C            0.43912756097030       -0.58298379826000        1.41128632688159
C            0.58561358975248       -1.80929721825573        0.75884292737929
C            1.02323079164222       -3.00732884671556        1.48690006186126
O            1.15546176100294       -4.11458194519066        1.04468827583010
O            1.30265151132473       -2.69278988797952        2.79861256672201
C            1.66234590074400       -3.62031835745935        3.72857547292537
C            2.38222360974838       -3.12235816335102        4.81661071329846
C            2.74850049858615       -3.97095788525592        5.83660866420987
F            3.43649609353422       -3.47659382727073        6.87275252570443
C            2.42389556259645       -5.33159943747326        5.82217698444421
C            2.80498780051009       -6.19505915713116        6.87484091969626
N            3.11396820955051       -6.89122846628847        7.72944990153974
C            1.70124561026224       -5.79290346998070        4.71844051657163
F            1.36006624030143       -7.08462844670515        4.66665592292044
C            1.31405749433049       -4.96704667161502        3.68172314325422
C            0.29835266676180       -1.89074323832176       -0.62396939743446
O            0.44701918523398       -3.07966801905235       -1.21612016685724
C            0.14556366200834       -3.22076874375986       -2.58778854686768
C           -0.11633080801459       -0.74258534345589       -1.30137273145769
C           -0.99507403383097        4.15378417494379       -2.17344469808291
C           -1.21476044391857        5.44092762142561       -2.62164673632090
H           -2.15885421403882        8.87545213945508       -4.20722509388017
H           -0.68231742056081        7.98572866698513       -3.76247232234846
H           -2.01481141941167        8.15993816977137       -2.58341378566847
H           -3.45370380566552        4.79045986575875       -5.06633477486905
H           -3.04987477964012        2.47087577487953       -4.25842285359008
H           -0.10097878718137        1.48467313784272        1.24447755206923
H            0.65671152801900       -0.52525772604795        2.46514859291656
H            2.64792484546115       -2.07883027591986        4.85748338292188
H            0.76365292952659       -5.38164498986251        2.85380860499024
H            0.30087229329245       -4.27545655691639       -2.80725281556869
H            0.81535532984533       -2.61855056045722       -3.20882673139557
H           -0.89288201503986       -2.95199645130683       -2.80059270224998
H           -0.33747030481904       -0.78195979476094       -2.35359536207270
H           -0.30349182150396        3.98154471113317       -1.36372781040296
H           -0.68870296296449        6.25633012695711       -2.15096807859540
