51
 energy: -98.535565072371 gnorm: 0.000089063157 xtb: 6.7.1 (edcfbbe)
C           -5.23152513682532        0.83633154642772        0.38421218988862
C           -3.81436187114062        0.51910427461222        0.83305698049583
O           -2.98423548584629        0.60753996866721       -0.31290232610557
C           -1.67516483492436        0.36337593311728       -0.21781273239702
C           -1.03137962456790        0.01815316491056        0.96778477882082
C            0.33501955997987       -0.22870116069750        0.99176389710518
O            0.86535487426664       -0.49868147743096        2.23098462081051
C            1.92516210132511       -1.33438123007607        2.39802294979921
O            2.41938094955145       -1.97691715940798        1.50697700459232
C            2.36558240482606       -1.36999041125996        3.80233189348753
C            1.79825988653434       -0.56368513210794        4.79206192626072
C            2.26045426047392       -0.62987732010787        6.08436905043578
C            3.30138703081613       -1.50151769913846        6.42796953252414
O            3.67828075172122       -1.48228540249106        7.72563471870423
C            4.72729405853066       -2.32466775958122        8.14625062927345
C            3.86778941215762       -2.30886271478556        5.44165481206609
C            3.40022491242795       -2.23758599001810        4.14582072661888
C            1.09529243563296       -0.13172074447200       -0.16872082598517
C            0.46460584705041        0.20487050806129       -1.34617801575598
C           -0.90580027907769        0.45706762536297       -1.40367043624658
C           -1.55439167451227        0.83609602882697       -2.66619510857357
O           -2.69404385400739        1.17989008356038       -2.81796654412573
O           -0.66407197440369        0.72851094733288       -3.71021335536958
C           -0.95790731959294        1.09268758770571       -4.98873493266799
C           -1.91778604179098        2.03721408725405       -5.35387968331766
C           -2.08221238718246        2.35335331656463       -6.68476796596573
C           -1.31144301400617        1.75232836634211       -7.67684173087576
N           -1.54221503156919        2.12288965136762       -9.05258771503777
O           -2.22138029220854        3.10973109289230       -9.24449842323934
O           -1.06071272792883        1.43554424022486       -9.92159141297173
C           -0.34664178210419        0.81534120664548       -7.29888869980146
F            0.44437994665470        0.22866361360058       -8.19604943726643
C           -0.16937024561782        0.49063457611887       -5.96939954183756
H           -5.90926429001356        0.79062069208711        1.23174081815938
H           -5.54773653577485        0.12159084917774       -0.36972508611352
H           -5.26483513326484        1.83013786603683       -0.05217503611826
H           -3.76413558262888       -0.49275909841876        1.25694746740473
H           -3.48298600318156        1.23967943193112        1.59283552074885
H           -1.57226300742884       -0.06429606827717        1.89615880070596
H            0.99875893712788        0.11347204655922        4.53677398648208
H            1.83705780680323       -0.01410097135703        6.86196295299414
H            4.85271179848049       -2.12798028511523        9.20957748003199
H            5.66017935409388       -2.09416735422553        7.62312736376177
H            4.47686927984554       -3.37972693260095        8.00045124727048
H            4.66968039579927       -2.99075240910635        5.67540593372375
H            3.83160221235156       -2.85621652701032        3.37352577876720
H            2.15473242155220       -0.32157577284742       -0.14889377940260
H            1.04520360325143        0.28542431700569       -2.25063163460384
H           -2.53298316987478        2.50811505418406       -4.60629591511271
H           -2.81911772138181        3.08129696848982       -6.98915746013131
H            0.58268077956632       -0.22925542454460       -5.68960526190102
