42
 energy: -58.346178389636 gnorm: 0.000207354245 xtb: 6.7.1 (edcfbbe)
H           -2.28736707523877       -7.12472495363936       -0.15910634871039
C           -2.74403577101447       -6.22146465800885        0.21863496421014
C           -2.04435146192814       -5.03379012447254        0.23246421779445
H           -1.02541601835655       -5.01176316260967       -0.12450176449188
C           -2.62512746419713       -3.86375980041448        0.72523615300952
C           -1.87729263718410       -2.60170517078874        0.73185164477329
C           -1.05455442751344       -2.25389375060548       -0.33451198272423
H           -0.97840267030864       -2.91249789200917       -1.18738831068125
C           -0.35404154381976       -1.06190285026669       -0.34628977455389
H            0.26393319800827       -0.82739881345248       -1.19872847397849
C           -0.45452128336930       -0.18388597748111        0.72892430166375
O            0.18402836111112        1.00852695084553        0.82744784981758
C            1.02039173781762        1.42820710054179       -0.23199723492207
H            1.84258313900492        0.71222323297571       -0.37217947090425
H            0.44592095294211        1.48875061248658       -1.16708191427246
C            1.57816751490936        2.80138455384535        0.12536577588719
H            0.74332529453654        3.48655844485764        0.28142203708182
H            2.12414684418752        2.72281488541320        1.06681889886205
C            2.49606563062001        3.33600193153763       -0.97006481897421
H            3.32720156126346        2.64199397649153       -1.11699210191188
H            1.94270051636239        3.39133318024129       -1.91073538653623
C            3.04722649327384        4.71801101502858       -0.62823277765169
H            2.21636644333351        5.41163386750112       -0.48130409728053
H            3.60204137007259        4.66358713007425        0.31101278310480
C            3.96393093266836        5.25537489669006       -1.72484765987044
H            4.79525857960338        4.56202216678834       -1.87153048829096
H            3.40889963116960        5.30876819638526       -2.66425672591742
C            4.51058107988755        6.63543119450384       -1.38137985481526
H            3.69746521554192        7.34614857986750       -1.25084369986142
H            5.08424080978120        6.59944125321751       -0.45784938588126
H            5.15968422036443        6.99852474384815       -2.17467388292711
C           -1.27216223044867       -0.53047126746006        1.80804993072683
H           -1.33686889011908        0.15339450342519        2.63960906148620
C           -1.97379756254214       -1.71388760162417        1.80496480206404
H           -2.58667145695954       -1.96916409538387        2.65668994346150
C           -3.93410727081978       -3.91786917965992        1.20758296974277
H           -4.40238456165520       -3.01697518663853        1.57524599962728
C           -4.64571804880825       -5.09851115988711        1.19582826315781
H           -5.66087207719554       -5.13269545515690        1.56374199370152
C           -4.05374641694322       -6.26133056996076        0.69984522849613
C           -4.77746448051322       -7.47380252090855        0.68353906090500
N           -5.36521617752314       -8.45861822613576        0.67022027558358
