48
 energy: -90.326051409185 gnorm: 0.000253794747 xtb: 6.7.1 (edcfbbe)
C           -1.42529182711353        2.28137900741490       -0.78242806501044
O           -0.24469458044814        2.21936149224767       -0.01509908688796
C            0.29899011049385        1.01832236658820        0.26383832232901
C           -0.25084141293917       -0.18489250600278       -0.16033478847931
C            0.34744083704410       -1.40593151336592        0.14279406414891
O           -0.33754654635401       -2.48966463027120       -0.35116231478376
C            0.09491621781380       -3.77446831758793       -0.30752541609334
O            1.13965603351094       -4.13566557847654        0.17163941884633
C           -0.88195321693794       -4.68235841580263       -0.93856567737404
C           -2.08625865439437       -4.23754372370221       -1.47957267772393
C           -2.96413627270086       -5.12608759743091       -2.06612296587387
C           -2.65044401654063       -6.48076668154487       -2.12130703606470
S           -3.68254836329339       -7.70477089462567       -2.84263923891234
C           -5.11610884654983       -6.77761151425268       -3.46177788184845
C           -1.44513627553888       -6.93245024988412       -1.57730717066770
C           -0.57335607197553       -6.04472826820449       -0.99430159415400
C            1.51931381053090       -1.44829704339958        0.88894371870964
C            2.06866749273896       -0.25598416849207        1.30822766596073
C            1.49251067221008        0.97997926885911        1.01806448775307
C            2.20732753315137        2.16609229621632        1.52789160635749
O            3.26698202298764        2.10805444766794        2.10094196675116
O            1.52873218248567        3.31328785632837        1.30020327504599
C            1.98048135667790        4.56527987849314        1.60600621117075
C            0.99305947641589        5.55606411946214        1.57380557676563
C            1.31726536307507        6.86830440953557        1.82626375473199
C            2.63933508605009        7.19823585010384        2.11265582884138
N            2.98500795843345        8.56877230512350        2.37624818886743
O            2.09466299689037        9.39257035413106        2.33359207708164
O            4.14517162897415        8.82165751282349        2.62411992523064
C            3.62626343848436        6.22111869735658        2.14270152123761
C            3.30285249465246        4.90289912973052        1.88864842973609
H           -1.65102643178770        3.34182581081904       -0.88172217958730
H           -2.25808591149876        1.78005670754645       -0.28006250759292
H           -1.28219681701360        1.84933229943782       -1.77729150794460
H           -1.15895867386015       -0.21183347064818       -0.73975690874895
H           -2.33661290926933       -3.18909707956719       -1.44004065548634
H           -3.88901284859511       -4.75430067151202       -2.47684752977130
H           -5.76327208945048       -7.51793975048596       -3.92172076137226
H           -4.79767695432786       -6.05428543269323       -4.20655918002641
H           -5.63482810425557       -6.29798729230946       -2.63708139922417
H           -1.21266464067937       -7.98520226003338       -1.62451328069966
H            0.36128829110775       -6.38039182272458       -0.57220045477508
H            1.99061163983950       -2.38515140202320        1.12897856356340
H            2.98053434735418       -0.25434142381607        1.88562781588985
H           -0.01841775852423        5.26113821053680        1.34584351970573
H            0.57068800775156        7.64731437295062        1.80818423380282
H            4.64313049266263        6.50709899684486        2.36429173870850
H            4.06618973270290        4.14364631863843        1.91641836786875
