60
 energy: -108.029785015773 gnorm: 0.000630096235 xtb: 6.7.1 (edcfbbe)
C            0.96191218600089       -1.53646690107929        5.64097739788033
C            0.00357122856476       -0.66113872446082        4.84337387296046
C           -0.72485260280020       -1.46467789567962        3.76999081783297
C           -1.69688744463662       -0.60465080446372        2.96420634749647
C           -2.27156898528227       -1.39201773916389        1.78590502781812
O           -1.25530518009285       -1.81675936346748        0.89572633076122
C           -0.63681203325062       -0.94123434100267        0.09313240167239
C           -1.09362060256805        0.34358346121202       -0.18426342884895
C           -0.43087787757227        1.15439686937770       -1.09728294983079
O           -1.01408731842238        2.38076107716627       -1.31675947393459
C           -0.29379286549662        3.48370711882310       -1.65206952000487
O            0.90843340409280        3.50680469805681       -1.72247460865442
C           -1.16925539177441        4.64463218962208       -1.88628150483689
C           -2.55780024924764        4.56137680596428       -1.83388138716632
C           -3.33977112688996        5.67624929188927       -2.06219064498268
C           -2.74172873630355        6.90326997248667       -2.34854774552450
O           -3.40959843046736        8.05403752695502       -2.58573393812933
C           -4.81819736563893        8.05016521654000       -2.54601529542314
C           -1.34482964039814        6.98736540209885       -2.40327728314590
C           -0.57240998921623        5.87528621024234       -2.17619911275249
C            0.69907670294008        0.69852551009586       -1.76698995408641
C            1.16758190074329       -0.56693201208827       -1.48460467213130
C            0.53473986100801       -1.39295306704518       -0.55859638178325
C            1.11190748588729       -2.69875494780324       -0.20177658127231
O            0.93293087857328       -3.30670292667715        0.81699744264677
O            1.92273590772253       -3.14733846650797       -1.21405852098766
C            2.66202488226149       -4.28885435765776       -1.14343507809876
C            3.04043419471320       -4.83320786705178       -2.37618308038598
C            3.82183952849094       -5.96176530417917       -2.42049043436024
C            4.25559185168909       -6.57601055972552       -1.24548451062278
N            5.08447323777586       -7.75330555596605       -1.34916233176918
O            5.13826534505939       -8.28586821091608       -2.43811087184995
O            5.67885292549886       -8.12688460017639       -0.36637113828416
C            3.87472350395089       -6.02446317850424       -0.02229692945618
F            4.24319458779399       -6.57929533505230        1.13017957305312
C            3.08307652929391       -4.88984644042716        0.03732090123821
H            1.48559494252063       -0.94895013569535        6.39143971934309
H            1.69850212328187       -1.98927212907951        4.98143457901114
H            0.42011853808277       -2.33365970255274        6.14490544491446
H            0.56215632188057        0.15076805543986        4.37136829245566
H           -0.72742639283617       -0.21025903747908        5.51938537857634
H           -1.27480626195720       -2.28253093921296        4.24056327221962
H            0.00327526073867       -1.90826985362801        3.08802883218180
H           -1.17322177694088        0.27785424877867        2.58917062464034
H           -2.52040165591039       -0.26725039782933        3.59643867920001
H           -3.04314085103519       -0.81827957935547        1.25862773626983
H           -2.71571826985562       -2.32439786424370        2.14322770176945
H           -1.97331093971754        0.74492125818505        0.29159857666032
H           -3.02844528678034        3.61566317273291       -1.61521447642918
H           -4.41316954062474        5.58164135030800       -2.01611714805287
H           -5.12046128788005        9.07346942033862       -2.76168317891501
H           -5.19057544116723        7.76395355884783       -1.55766453527475
H           -5.23884276075828        7.38174085676218       -3.30343460249946
H           -0.90054818911526        7.94396675669664       -2.62704355142104
H            0.50459635928180        5.92986131459012       -2.21547469382952
H            1.20924915785159        1.32651344483404       -2.47678035685660
H            2.05656839365441       -0.92500106251086       -1.97875030311519
H            2.70755376905202       -4.35022664204025       -3.28029092883566
H            4.11939253805228       -6.39889853312493       -3.36150553264647
H            2.79905094820106       -4.50436031222236        1.00247773563146
