45
 energy: -61.510584785433 gnorm: 0.000129403506 xtb: 6.7.1 (edcfbbe)
H           -2.75236629305854       -7.57834821782337        0.12005495798819
C           -3.22945095128502       -6.65712741863706        0.42141881726910
C           -2.52130036997549       -5.47466922784174        0.44491449085950
H           -1.47615809831684       -5.47442406587918        0.17330059481836
C           -3.12896456440613       -4.28124487964762        0.83944463633413
C           -2.37129339410491       -3.02524874061520        0.85680706030269
C           -1.45703722364909       -2.72940189654483       -0.14901111677950
H           -1.31609282581069       -3.42417116098167       -0.96407407191199
C           -0.74470139834308       -1.54445687153905       -0.15067702790805
H           -0.05421674059728       -1.35114437576686       -0.95648962533218
C           -0.92601471392860       -0.62086503033066        0.87462143738655
O           -0.28346843188445        0.56901372794192        0.97768411542912
C            0.64801300405723        0.93300747469215       -0.02120035841580
H            1.46488731723218        0.19881039097637       -0.06332306252857
H            0.15604756924022        0.96587954669478       -1.00357710895092
C            1.20055316121521        2.30994033716230        0.32950042480138
H            0.36807770294572        3.01217116010276        0.39716363098386
H            1.67254798044756        2.25826799537659        1.31191256323409
C            2.20719582405925        2.79067898227863       -0.71148318317570
H            3.03502943719999        2.07995931830575       -0.77038700298889
H            1.72685666706400        2.81936422840084       -1.69255597136767
C            2.75450193243958        4.17649210698232       -0.37874564053762
H            1.92622127783118        4.88586181989457       -0.31673049638246
H            3.23868136438006        4.14849340758490        0.59991957302001
C            3.75589198368938        4.66005095372896       -1.42490766824250
H            4.58679421346487        3.95294452093247       -1.48371349899275
H            3.27201186463868        4.68195844877605       -2.40434451168906
C            4.30007189069171        6.04963903663698       -1.10269806884869
H            3.46942854120454        6.75648952311980       -1.04212379731023
H            4.78738546243984        6.02819092522724       -0.12531234682930
C            5.29447487949736        6.52621106999231       -2.15425027906672
H            6.14004941170094        5.84455486059806       -2.21641534359942
H            4.82148572505800        6.57332957495370       -3.13282372794300
H            5.66952479701219        7.51639481188508       -1.90649751573030
C           -1.83703225439942       -0.91439906867741        1.89294210609356
H           -1.96482733474045       -0.19505457634486        2.68637937275932
C           -2.54922513638951       -2.09143149704408        1.87929804139452
H           -3.23537044102570       -2.30525747594386        2.68532577372200
C           -4.47390068979529       -4.30651225956158        1.21302752044012
H           -4.96192335358599       -3.38797370792777        1.50306409454931
C           -5.19395192700784       -5.48185347006492        1.19059121677219
H           -6.23631293396404       -5.49392832344684        1.47405176552045
C           -4.57483531950210       -6.66818624198744        0.79331133542355
C           -5.30679610155816       -7.87548053210888        0.76577753768799
N           -5.90049151018350       -8.85654518352272        0.74080035774366
