58
 energy: -112.032436947399 gnorm: 0.000188194456 xtb: 6.7.1 (edcfbbe)
C           -1.41223830400024       -0.72558854848560       -5.63270844655800
C           -0.54200457169844       -1.96211872562752       -5.44278885925256
C            0.53288834782567       -1.72540894461760       -4.38461922554230
C            1.46440364274326       -2.92601518513107       -4.19226043015090
C            0.78554965745835       -4.04394525367076       -3.39008976517434
O            0.55818760144558       -3.64051425728765       -2.05183548883521
C            1.74433877572299       -3.26143221612719       -1.41397715584156
C            1.42205183152813       -2.87428764487644        0.00953112897478
C            0.49267204944415       -3.61495322341785        0.72340254916257
C            0.21438005815819       -3.27710921831409        2.03426545390111
F           -0.67276804874936       -4.02233159673989        2.69785570438240
C            0.82855691872909       -2.19789152277915        2.67177929378433
C            0.54912409674376       -1.89406260784846        4.13599209598982
F           -0.75019503123185       -2.18549193235706        4.43839114473709
F            1.27889386737560       -2.74197043207254        4.90350036266515
O            0.85967173873806       -0.64965213568276        4.57947457948903
C            0.25882900111596        0.46436526584259        4.03143276795760
C           -0.76756655119901        0.43287111524703        3.09851331840215
C           -1.29781212729266        1.62196635263618        2.63108782164405
C           -0.81567286825421        2.85057982196079        3.07192441444945
C           -1.38301082709566        4.10535020118183        2.56520629333293
C           -2.75407823112051        4.22323187686195        2.33629658648819
C           -3.27581028776176        5.40748495933791        1.86156298245459
F           -4.59666739441037        5.49770783575848        1.65608035082768
C           -2.47150061099350        6.51850092862424        1.58902784803095
C           -3.01601586384200        7.72688805547253        1.09761321124774
N           -3.45729220358869        8.70434900896242        0.69708059205674
C           -1.10087577476700        6.37393248479035        1.82574355236483
F           -0.28722824608913        7.40843021353977        1.57459786119290
C           -0.55910268285595        5.20057458563401        2.30482572883923
C            0.21879763260541        2.86223063294879        4.00908488106435
C            0.74809892123150        1.68472656013413        4.48800111582649
C            1.76610934273787       -1.48669896115119        1.92601744941497
F            2.41855762737889       -0.45458613064727        2.47814971157030
C            2.06179857298877       -1.80429257098239        0.61325460978247
O            2.38383894485625       -2.20011845815901       -2.05849531037966
C            2.71413095283364       -2.52819900153212       -3.39569893774878
H           -2.17156175264075       -0.90511612544012       -6.38987675713734
H           -0.80809796066188        0.12253978694644       -5.94721241785254
H           -1.91019941290144       -0.46426500629516       -4.70186471231102
H           -0.06399746247640       -2.21872758063921       -6.39137235460015
H           -1.17493201030069       -2.80226120663537       -5.15202225270617
H            0.06381736222857       -1.49103428661877       -3.42716741167398
H            1.13187556057700       -0.86139639746233       -4.68157115697597
H            1.77424704876847       -3.31786454824885       -5.16526897389288
H            1.41912072710877       -4.94538967454387       -3.39830691865221
H           -0.19651123376680       -4.29477767357127       -3.79020173288394
H            2.43744624655952       -4.14025224239435       -1.39968867819903
H           -0.01840630550049       -4.44669514652607        0.26774186787215
H           -1.17015955723974       -0.50022347605436        2.73641913073274
H           -2.08335575777637        1.58634285847642        1.89198545951773
H           -3.42451815942395        3.40565237873151        2.54700536286318
H            0.50731368988188        5.13992667968743        2.45105840591300
H            0.59230255569124        3.80223403614545        4.38483709675685
H            1.54240942297149        1.67994880095851        5.21579565025856
H            2.78397144651585       -1.21941797056475        0.06885573109096
H            3.43879204356619       -3.35863174615445       -3.39858485838298
H            3.18940355209206       -1.63714279121211       -3.80782027035474
