64
 energy: -113.576721914717 gnorm: 0.000695153184 xtb: 6.7.1 (edcfbbe)
H            3.00241946758290        4.30924480744519        1.90850310785345
C            2.86157888440920        4.88671525699604        1.00832347900345
C            3.21861000983582        6.22257620492038        1.00647468670198
C            3.04820051551085        7.01809562105927       -0.12190299335489
C            3.43086506582204        8.43436646937834       -0.11189815599641
C            4.59216013123523        8.85340434948096        0.53982224517965
H            5.22245441606401        8.12297365017250        1.02486708097585
C            4.95948562023970       10.18205287902613        0.55010895788573
H            5.86249639452459       10.49934239448533        1.05104573422898
C            4.16186189764793       11.12773073986143       -0.09627561437714
C            4.53284261021805       12.49026881227461       -0.08924903640134
N            4.83351485433212       13.59707034305300       -0.08258374205211
C            2.99729537665111       10.72197777220645       -0.75019388316910
H            2.38042701279898       11.45756339008605       -1.24565968027890
C            2.64243300039286        9.38985234962996       -0.75553027677520
H            1.73126278504574        9.08323060858135       -1.24729170745179
C            2.50455537258843        6.42989540681689       -1.26528925747969
H            2.38177328412808        7.01808630708754       -2.16255708821933
C            2.15482272294167        5.09946327903744       -1.27678468321991
H            1.74524857132209        4.63901504745060       -2.16214292085634
C            2.32738350975499        4.30722095826611       -0.13854951218878
O            1.94930588538704        3.01020810329813       -0.25736488044339
C            2.12670499326726        2.13778488105068        0.84107238681901
H            3.18939043293768        2.09401367046447        1.11728225266789
H            1.55153983863044        2.49553879116010        1.70632639197759
C            1.63730794814285        0.75463888024431        0.42470583931532
H            2.14582168168621        0.47296272868729       -0.49865861116164
H            1.91219540375241        0.03885569740443        1.20108524039969
C            0.12666416483380        0.73125294691851        0.20485852334259
H           -0.37654464886095        0.98747774880122        1.13996863979213
H           -0.13301861593434        1.49035614104032       -0.53475095745002
C           -0.35538045301335       -0.63602259557761       -0.27010927284111
H            0.12237701203761       -0.87818672450983       -1.22208015100042
H           -0.06497644545719       -1.39703701831916        0.45604825685461
C           -1.87241045501064       -0.66996640424262       -0.44115685946398
H           -2.35064496508034       -0.43257668136235        0.51025477939963
H           -2.18351619865981        0.07296595655154       -1.17685787903670
C           -2.36426895644474       -2.03565113260805       -0.90455647902324
H           -3.44403862844128       -2.00747937877795       -1.08695711848611
H           -1.85365753023753       -2.33246602426014       -1.82755500359345
O           -2.06874425012638       -2.96391064414728        0.13521088498476
C           -2.39951397097227       -4.25327264468511        0.02864066436345
C           -3.05854607496924       -4.89685397375063       -1.02296465220237
F           -3.45020562995489       -4.22104124198829       -2.12353249212604
C           -3.33956539148634       -6.25772692780628       -0.97698957726874
F           -3.99688177698215       -6.78867872608807       -2.01779220943728
C           -2.99518074753992       -7.06215294059063        0.10487398801271
C           -3.31425559824756       -8.49939132098694        0.14395894688511
C           -3.07279421466015       -9.30571397153503       -0.96778345247069
H           -2.63630529647995       -8.87967697341791       -1.85763601831075
C           -3.37545381271847      -10.65101541730477       -0.93418188414570
H           -3.18705788435356      -11.27565745727188       -1.79423954490879
C           -3.92768988948994      -11.20964914243310        0.21873347557408
C           -4.24325292812723      -12.58787306199795        0.25612306668106
N           -4.49464245392976      -13.70565629697568        0.28593177223612
C           -4.17092027826433      -10.40847171485329        1.33456766315220
H           -4.60022555918504      -10.84516159089286        2.22357366193948
C           -3.86472519522768       -9.06423391298526        1.29399146779484
H           -4.06508125235298       -8.44583201191853        2.15496912344082
C           -2.33281914440955       -6.42118960778901        1.15479711816120
F           -1.93897633688865       -7.12900440725747        2.22216183548178
C           -2.04144811024475       -5.07064620976868        1.11615214081505
F           -1.39454735370678       -4.50205519019329        2.14425157015591
H            3.61429118373768        6.65805915336136        1.91238061311604
