38
 energy: -55.340702006669 gnorm: 0.000278846334 xtb: 6.7.1 (edcfbbe)
H           -0.91087133794318       -6.56760216499634        0.16995804814640
C           -1.40153374983327       -5.61788775777407        0.32563737513972
C           -0.67615681289931       -4.44536964315596        0.33231574256170
H            0.39444163865951       -4.47937917803391        0.19459511551822
C           -1.30318523178038       -3.21612429175833        0.54050220324972
C           -0.52466986282243       -1.97120684817810        0.54774981854020
C            0.50136143465817       -1.76712867028649       -0.37248137979665
H            0.71337039233244       -2.52482124706985       -1.11288226296265
C            1.22867999380216       -0.59350589243183       -0.36634445376645
H            2.01695664139866       -0.44972743120327       -1.09157372124161
C            0.96412544789161        0.40597787647124        0.56223579348106
C            1.72812074629861        1.69657470562041        0.53430433464716
H            1.76679936225420        2.13008261236176        1.53567125702026
H            2.75176616350649        1.51651088276134        0.19984049098471
C            1.05765556818802        2.69196446805403       -0.42031672453443
H            0.99913291280291        2.24647907269694       -1.41591645347829
H            0.03554460472676        2.87930551683736       -0.08222091477762
C            1.82267660714081        4.00960089738834       -0.49423859404875
H            1.88489301466737        4.45097910027830        0.50362540286698
H            2.84111125737423        3.82080155238842       -0.83964374462538
C            1.15380948186506        5.00113046523994       -1.44476872808662
H            1.07280165853664        4.55658746558097       -2.43876231260298
H            0.14801568464212        5.23944437293228       -1.09419955425816
C            1.93942802106722        6.29956265021200       -1.55358365911910
H            1.42490686797440        7.02985126598923       -2.18670434409317
H            2.13978399757209        6.73383795715510       -0.56838169849684
F            3.16412777101965        6.07327628423780       -2.13652078849766
C           -0.05711360810297        0.20097411950897        1.48166156049521
H           -0.27424314819061        0.96476412293356        2.21499088900149
C           -0.79387882164009       -0.96719613714613        1.47519369250849
H           -1.56980498743529       -1.11508636747268        2.21235061393363
C           -2.68410211031694       -3.19180403104045        0.74063927676108
H           -3.18379973822681       -2.24521893336177        0.88421384237540
C           -3.42135329617337       -4.35689125533301        0.73203585642855
H           -4.49100104157688       -4.33251734577427        0.88152623443063
C           -2.78252820927179       -5.58048240148575        0.52493177831548
C           -3.53230191315296       -6.77754276225145        0.51666916743040
N           -4.14295539901287       -7.74821302989512        0.50790084054607
