53
 energy: -77.749062033572 gnorm: 0.000177199473 xtb: 6.7.1 (edcfbbe)
H           -2.39721968487991       -9.25357374041430       -2.08358374141808
C           -2.78586730343924       -8.44846305886015       -1.47734782124721
C           -2.15534679751895       -7.22268450874752       -1.44979307775868
H           -1.25646655802538       -7.07180422942798       -2.02905715492390
C           -2.64751288251147       -6.18140039427906       -0.66154224502577
C           -1.96812196138352       -4.88080091046357       -0.63109844601211
C           -1.45887640623481       -4.31265637140014       -1.79741404994666
H           -1.58038633005653       -4.82853048404031       -2.73907189276117
C           -0.82733659423899       -3.08631347072797       -1.76778366868482
H           -0.43268631408192       -2.66739921640940       -2.68187810508296
C           -0.66951868946051       -2.39124640443281       -0.56985578266303
C            0.00312767207117       -1.08707030192543       -0.53472330355172
C           -0.20822673956873       -0.14503211276341       -1.53550787450018
H           -0.88646323721484       -0.37037487549297       -2.34553484097690
C            0.40715551719383        1.09344766871728       -1.50336906256961
H            0.20832702629451        1.79713499760539       -2.29662819324254
C            1.26476975726560        1.41643765142935       -0.45722541184219
O            1.92024479622868        2.59813412800928       -0.31604643234671
C            1.72518384265237        3.61192658781972       -1.27996020638542
H            2.07697917710661        3.26980319187399       -2.26357037171391
H            0.65829094533276        3.86444828025564       -1.35552499214270
C            2.51967182116602        4.83624385722542       -0.83634659312556
H            3.55592628386121        4.53472427254788       -0.67545458182347
H            2.49680963952410        5.57697974679445       -1.63773057801262
C            1.95598501788529        5.43536007537376        0.45008617237958
H            0.92710287878663        5.75996057242990        0.27660095934684
H            1.93696558737877        4.66013483670897        1.21756466179706
C            2.78491286754501        6.61963457942520        0.93894384162978
H            3.80948100338588        6.28941639825193        1.12639249687326
H            2.82013119310886        7.38351145763500        0.15767347328200
C            2.20368313248504        7.22336062536556        2.21472307414690
H            1.18210947324153        7.56260247085208        2.02829750424535
H            2.16250944603257        6.46076773036297        2.99558282682800
C            3.04720051449759        8.40638353358624        2.70619188463946
H            4.06743576496249        8.07891017586708        2.92674120396962
H            3.09327312618683        9.18408529053499        1.93799281609759
C            2.48360347036270        8.97965308624324        3.90080580452626
N            2.02132320457728        9.42298633110786        4.84760090083544
C            1.49173971810228        0.47171930458120        0.54626077355355
H            2.16655518568294        0.72918362829145        1.34753460844245
C            0.86831526873136       -0.75435979662160        0.50862720658172
H            1.06968239521403       -1.47620408155107        1.28617530253832
C           -1.17198538985902       -2.96493426843246        0.59714071824945
H           -1.07281990542884       -2.43716473658089        1.53432258963045
C           -1.81623098699797       -4.18432607368712        0.56659670973073
H           -2.18790578849298       -4.61533869759421        1.48496138283734
C           -3.79699890683971       -6.40024125478421        0.09920937176076
H           -4.19933981636147       -5.59641206108035        0.69786709803338
C           -4.43960993613558       -7.61977796958914        0.07611195259402
H           -5.33261983535493       -7.78240909098415        0.66188894234334
C           -3.93536586952487       -8.65486174933950       -0.71291163210357
C           -4.58649784657348       -9.90800709093294       -0.73685840713613
N           -5.11511194667778      -10.92558352833676       -0.75605580988391
