47
 energy: -92.624742773792 gnorm: 0.000131075582 xtb: 6.7.1 (edcfbbe)
C           -8.85620925018688       -0.78405120077942       -3.68617002542198
C           -7.60857076528762       -0.70005685616240       -2.81720973333919
C           -6.90827861769599        0.65645464852755       -2.98093570642534
C           -5.69933596272843        0.70456269769293       -2.08262838002830
O           -5.68651682270711        1.12599290706826       -0.95988087209119
O           -4.64468078359585        0.14722284428537       -2.71489103334629
C           -3.39457395225121        0.00064886376013       -2.15108819355731
C           -2.88736896826522        0.80894281744811       -1.14003199410272
C           -1.60388232505686        0.59243716132592       -0.67607239435496
C           -0.81596698715898       -0.42007829812094       -1.21666195498255
C            0.56121443921984       -0.68952772901099       -0.75030128823787
O            1.26764062963539       -1.56293400319044       -1.18353072205955
O            0.93275979403150        0.18659740102033        0.21318755497716
C            2.15547752932170        0.13516622989058        0.84132871145736
C            2.88553335286885       -1.02742342120472        1.05641883246729
C            4.08495954615012       -0.96161963663088        1.73920956636525
C            4.58648311858529        0.23734160128108        2.24134109018606
C            5.86448241095136        0.27954938984648        2.96775562285276
C            6.94889652280400       -0.46138983540337        2.50372741734739
C            8.15004114289028       -0.43232349021166        3.18446109189853
F            9.18559632910734       -1.14610071227453        2.72104993809217
C            8.30370128388027        0.32382947578046        4.34175001923819
F            9.46910037898438        0.34360366949305        4.99920660145254
C            7.21357958802130        1.05798507825769        4.79677726807862
F            7.33357191861813        1.78768764608703        5.91351233487917
C            6.00735402948897        1.04282030481889        4.12326443491504
C            3.82183263508999        1.38222498239276        2.01734793239716
F            4.26003389278654        2.57791020465191        2.45580767545221
C            2.62925399342032        1.35010432329405        1.32669873200314
C           -1.33067177106831       -1.21948361759191       -2.23829001302300
C           -2.60967620563415       -1.01177726791245       -2.70284913558710
H           -9.33818660148633       -1.75020606308440       -3.56009302750020
H           -8.60082592680278       -0.66143002316464       -4.73621859999775
H           -9.56633328296556       -0.00761033881453       -3.41193129669010
H           -6.91436009100003       -1.49666540927832       -3.09248206763481
H           -7.88031702986808       -0.83520803376475       -1.76847171990830
H           -7.58891283520498        1.45748661803891       -2.69183528257115
H           -6.59833125102594        0.78763487702119       -4.01775149154173
H           -3.49054369403102        1.59316211796132       -0.71402121579641
H           -1.21004258108697        1.21544067621494        0.11098108627773
H            2.52642915657124       -1.97343964500872        0.68789336867461
H            4.63961447628391       -1.87054532215935        1.91229611850865
H            6.87710761387456       -1.04720145565156        1.60154674007881
H            5.18982191339477        1.62382959777057        4.51780281162561
H            2.07115327468316        2.25778162338666        1.16419638300025
H           -0.70871588043077       -1.99858649720024       -2.65153555392944
H           -3.02334738512509       -1.61873890069673       -3.49265963010058
