31
 energy: -46.068418251817 gnorm: 0.000516783444 xtb: 6.7.1 (edcfbbe)
H           -7.08585153473800       -1.21124214539853       -2.09907058985502
O           -6.11684842113274       -1.20669924096854       -2.13046926013126
C           -5.63855354179551       -0.63233334918260       -1.01053852926947
O           -6.37702648300529       -0.21391731264920       -0.15111976668412
C           -4.16910896755208       -0.57482352091394       -0.96103847060521
C           -3.55862534549939       -0.00092236626606        0.15114777657302
H           -4.18470857476375        0.38382622805757        0.94190282044129
C           -2.18418857191805        0.07623026958641        0.24570510342633
H           -1.73984031354951        0.52599988335854        1.11947118667796
C           -1.38887881172154       -0.42566004153261       -0.78438917687072
O           -0.03828554144053       -0.40619700715428       -0.80404021449234
C            0.66781721059375        0.15766158560747        0.28537746347850
H            0.39118880083214        1.21352179753017        0.41057662201514
H            0.42709029740708       -0.38074251233509        1.21232847465349
C            2.15719438357611        0.03788108100640       -0.01966693379956
H            2.39826042270846       -1.01624748162335       -0.16610474258000
H            2.36312712909316        0.55878886563215       -0.95614896985701
C            3.01515776794658        0.61883067675628        1.10036090065873
H            2.76042850425707        1.67145437542731        1.24445669612678
H            2.79712094674145        0.09499414824203        2.03401912844187
C            4.50593001188475        0.49889447554557        0.79156005009275
H            4.75969210412202       -0.55332769899795        0.64702020924764
H            4.72312531762534        1.02286990744513       -0.14157344118000
C            5.36421398041004        1.07808009676807        1.90939092496993
H            5.13982651708127        2.13230025131371        2.05607709788482
H            5.17677283454962        0.55539724034541        2.84475991037124
H            6.42020357101358        0.98246527416220        1.66875162940084
C           -2.00304624819442       -1.00270578442617       -1.90307374035073
H           -1.37006084728397       -1.38475812644258       -2.68832534557370
C           -3.37223101103506       -1.07704968939376       -1.99183210927780
H           -3.83989558621261       -1.52255987949975       -2.85548470393334
