47
 energy: -102.107413774548 gnorm: 0.000204631166 xtb: 6.7.1 (edcfbbe)
C           -6.24488822166331        4.86428393191700        5.13452472977593
O           -6.08986325063238        3.50334937306855        4.78848617553404
C           -5.13506826522636        3.15749337254463        3.91113860886479
C           -4.25583175794122        4.04740260761840        3.29635153910418
C           -3.31809576861463        3.56487325676435        2.40366473744009
F           -2.47816324743315        4.44832191306196        1.85474027589970
C           -3.18811228422897        2.21229500298442        2.09097645155859
C           -2.17199156210382        1.75129013483278        1.10536292259540
O           -1.83672444746449        2.37933459937363        0.13800985783416
O           -1.71006135898923        0.54141009137584        1.46240976176260
C           -0.78854170832456       -0.18795348525461        0.74593512912537
C           -0.76602588507336       -1.55272356870406        1.03206027690241
C            0.14582205405207       -2.34896329728159        0.38421740159217
C            1.04570510249650       -1.82861249124793       -0.55063073230852
C            1.96403056439384       -2.80151757857572       -1.16921362628166
O            1.93417182128144       -3.98500625113312       -0.94055324371510
O            2.84995758941809       -2.21100542257981       -2.00829830992300
C            3.80249178767403       -2.85819938899710       -2.73272365795961
C            3.95349582228311       -4.23772590543966       -2.83861980392897
C            4.96790869379735       -4.73798158808239       -3.63198472845670
F            5.10495822954313       -6.06472573698041       -3.72786209528290
C            5.85209202283659       -3.91797133254240       -4.33763807580023
C            6.88137280447331       -4.45472737662635       -5.14451338468315
N            7.71605661629437       -4.88643596674467       -5.79835379809987
C            5.66717456947468       -2.53680177517612       -4.20719752424830
F            6.48663845548362       -1.70574361227274       -4.86291532625332
C            4.66802885622395       -2.00646755425132       -3.42477670697593
C            1.01632381092242       -0.44739451314384       -0.83733704654503
O            1.87866023924740        0.03731314723736       -1.74722898565536
C            1.84268058911068        1.41094879079927       -2.07486760505483
C            0.09432401657155        0.36026183802118       -0.16920659985565
C           -4.08392015707886        1.34831961782013        2.72982252838269
F           -4.04630913570586        0.03804382184887        2.45756451722257
C           -5.03966462191483        1.79395761110330        3.61223185425166
H           -7.06811657797116        4.89200356915602        5.84569970003078
H           -6.49884531462038        5.47094859600584        4.26111190043380
H           -5.34234665990536        5.25982635520249        5.60842526842019
H           -4.27693569352637        5.10693957425842        3.48907111782275
H           -1.46449207774640       -1.95037982176661        1.74911238129050
H            0.19000313187114       -3.40911155945520        0.58051476091166
H            3.30429404404797       -4.92016996067941       -2.31535034487809
H            4.54397494239072       -0.93986778370715       -3.33978733052483
H            2.59156307497879        1.54221601809262       -2.85413376269997
H            2.10283467667575        2.03536771206745       -1.21549556853622
H            0.86383231085953        1.70794627116581       -2.46065532023346
H            0.05482469073420        1.41672578209531       -0.36804575895969
H           -5.71923252096584        1.09860298220151        4.07594744012241
