45
 energy: -91.087916220535 gnorm: 0.000143968018 xtb: 6.7.1 (edcfbbe)
C           -7.55787844267853       -0.05118625315327       -0.77700421143829
C           -7.28539420981100        1.32447015798283       -0.18378302894260
C           -6.28496408190965        2.13178588792882       -1.02508372255012
C           -4.92762859171429        1.49899262919647       -1.01487677372534
C           -4.48685255621043        0.70924987922084       -2.07377671258010
C           -3.24233990792473        0.11870730564968       -2.04058755441994
C           -2.38356197927744        0.29624050339312       -0.95298670768602
C           -1.04840452223643       -0.33664101567898       -1.02817363199968
O           -0.72159898764778       -1.10108547857250       -1.89913551668118
O           -0.25473061609721        0.06958207228434       -0.01387677485854
C            1.06251852084969       -0.25385912355609        0.14081808782998
C            1.83523404250344       -0.96931267125190       -0.76521544605675
C            3.17507956416727       -1.16244316702118       -0.48547983098363
F            3.89853820644726       -1.86476097495594       -1.37236114177065
C            3.80160340925743       -0.68905427866094        0.66703537770476
C            5.23715183001814       -0.88562210696463        0.92074402819238
C            6.16193501839455       -0.65690092774855       -0.09669220685138
C            7.50768411940350       -0.82476396537429        0.15273395194519
F            8.38292336256286       -0.58894183200058       -0.83153968383356
C            7.98681681005071       -1.22528819314396        1.40368007938776
C            9.37030764604030       -1.38949126759409        1.64757922552037
N           10.49027649544828       -1.52014806962910        1.84444496465292
C            7.03465840144874       -1.45230939879685        2.40202097728045
F            7.44686407355180       -1.84502533304148        3.61293424350012
C            5.68376003880575       -1.28709437442944        2.17813597504361
C            2.97580128032053        0.00380683729056        1.55622455332523
F            3.50828033706455        0.50566001405731        2.68251805558323
C            1.63967933062037        0.23151748215631        1.31388668785152
C           -2.84260094768132        1.07805524759279        0.10823853337373
F           -2.08462380560064        1.28062926549744        1.19905081145860
C           -4.09123103713024        1.66722893881054        0.08219978296461
H           -8.28488222651367       -0.58581366468620       -0.17073051515086
H           -6.64499156990851       -0.64105096306067       -0.81790661622442
H           -7.95565623417873        0.03962691193371       -1.78541355284129
H           -6.89555017621417        1.21391799619635        0.82984877652679
H           -8.22014069862700        1.88509146416215       -0.12442552230591
H           -6.21648035196751        3.14131550788670       -0.61491692778003
H           -6.65458144414622        2.20033149729273       -2.04924309352894
H           -5.12535829729585        0.56346675297508       -2.93156312601469
H           -2.89321171737887       -0.49120177911066       -2.85980337627087
H            1.42029115353674       -1.37275176461509       -1.67404205322262
H            5.84928620233130       -0.33962577498413       -1.07832486542662
H            4.99406268592731       -1.47922917717788        2.98397429597109
H            1.04000737352268        0.78753682564474        2.01564478725856
H           -4.40009750012255        2.26639837804141        0.92525939777619
