54
 energy: -73.323879786111 gnorm: 0.000255815203 xtb: 6.7.1 (edcfbbe)
H           -3.14546105808315       -6.99744912959668       -0.13546198436619
C           -2.91847806469842       -6.40626066888021       -1.01001901049861
C           -2.22718659886069       -5.21986117175730       -0.89598648486026
H           -1.89815204502181       -4.88814282914951        0.07675548617087
C           -1.92268828570957       -4.45220963358964       -2.02263247466628
C           -1.18289363994995       -3.19136777139764       -1.89788853615987
C           -1.43235409841139       -2.31800740282219       -0.84094458084186
H           -2.19615424261537       -2.56071499917030       -0.11657314792887
C           -0.73898799045539       -1.12996690118136       -0.72913422425617
H           -0.96202045757578       -0.47049064310269        0.09622419323831
C            0.23221249954783       -0.77480526792572       -1.65963529741600
C            0.99947954727586        0.51387386914818       -1.53932179914565
H            1.68438239967690        0.58876779358231       -2.39203377579960
C            1.83818339712315        0.54106742105781       -0.25668436297478
H            1.18777720445781        0.43195306846085        0.61153698727687
H            2.52758664290647       -0.30688790330681       -0.25708825225599
C            2.63014948941604        1.84146509723982       -0.15745705943994
H            3.21592583813291        1.84299919351103        0.76274453342535
H            3.33432057761045        1.88839116596661       -0.99225368382762
C            1.73238192341879        3.08238063300812       -0.21225938838845
H            2.38108883182235        3.96381629986828       -0.28881316024539
C            0.87078715663649        3.26486023682811        1.04336149738282
H            0.12776518920184        4.04074598845949        0.84074568571549
H            0.32899503505710        2.34665790217645        1.27048756654982
C            1.67706674654194        3.67893954968405        2.27274539572017
H            2.39636960661389        2.89813664161052        2.52718035322230
H            2.24136847696107        4.58712648033812        2.04695257706363
C            0.77763609470867        3.93264095430970        3.48038685013950
H            0.06402431395815        4.72471207760682        3.24061370777030
H            0.20441464416631        3.02857079100601        3.70085962356932
C            1.57659378845923        4.33370581638057        4.71797489313036
H            2.28811035993635        3.54068463624358        4.96015461801104
H            2.15114342057235        5.23657559649590        4.49853477344026
C            0.67412141564973        4.58745025964478        5.91910965517890
H           -0.02845977197583        5.39014426419444        5.70550855304445
H            0.10577590146368        3.69291843481550        6.16511514119792
H            1.26311987706801        4.86946983693292        6.78872265007641
C            0.87682909279372        3.02180983063153       -1.48312442324599
H            0.20156666862747        3.87962603915767       -1.51473564752196
H            1.53517200040494        3.08828207290206       -2.35324762824420
C            0.06900611556405        1.73096556356299       -1.57449069405246
H           -0.50458562166189        1.72158903294905       -2.50455317508744
H           -0.64147022742560        1.68164259260549       -0.74930615407363
C            0.48295285316944       -1.65105796181096       -2.70893929536218
H            1.23716413055127       -1.40102758351599       -3.44163863793506
C           -0.21327966704828       -2.83730992660008       -2.83297214298897
H            0.01572931175663       -3.50857158289588       -3.64758558833038
C           -2.33355584000703       -4.90692320188387       -3.27477268868393
H           -2.13471242153732       -4.33374711428923       -4.16672892182527
C           -3.02835150328114       -6.09246516652707       -3.38267274111178
F           -3.42006432351229       -6.50581627522402       -4.60062610383446
C           -3.33511591957516       -6.86628475499388       -2.26180454601760
C           -4.04591673934204       -8.08155730518755       -2.37641162363376
N           -4.61930203444854       -9.07107394552235       -2.44791750637001
