45
 energy: -86.861786191001 gnorm: 0.000214321082 xtb: 6.7.1 (edcfbbe)
C           -8.70292186428059       -0.67614983149136       -0.82229364169760
C           -7.27021251372126       -0.53497837813230       -0.32611126989822
C           -6.40882739214352        0.25433004954665       -1.32197129495034
C           -5.00440478179882        0.38141988390316       -0.81972847984555
C           -4.02690722136435       -0.54304737600860       -1.17974349005860
C           -2.73909850649176       -0.43848891195261       -0.69925884926993
C           -2.37776449643456        0.59215919336885        0.17093761970171
C           -0.99829589757049        0.73826872400893        0.68004659122853
O           -0.64333619389227        1.46005065159112        1.56879693932997
O           -0.15226541735951       -0.09014898753730       -0.00132012857739
C            1.20414903977126       -0.05642239958072        0.18956642082037
C            1.91321357747364        1.10053975216566        0.48490772583649
C            3.28949701343300        1.03026945048772        0.58327985346900
F            3.95285019815062        2.16910055097011        0.84134027909585
C            4.01783502317084       -0.14295887138392        0.38563768471927
C            5.48703209704791       -0.17630163980115        0.46663933744820
C            6.15537578442511        0.45474348911895        1.51638346097353
C            7.53232140177826        0.43711565356679        1.58275586172852
C            8.28112162229567       -0.21146147230855        0.59857593012393
C            9.69359181337229       -0.22010934408436        0.66368863204958
N           10.83706690317283       -0.21601333027017        0.73084939115380
C            7.59988167342244       -0.84249872051859       -0.44396657311314
F            8.29403924195982       -1.46916829086611       -1.40611995485205
C            6.22248260055762       -0.83209657222988       -0.51761264248918
C            3.25830031492353       -1.27592082195968        0.08952163935828
F            3.88231212194627       -2.45242775208283       -0.09092683723536
C            1.88283799967371       -1.25562147643144       -0.00511696027492
C           -3.37125808018424        1.50401199871232        0.53758750421235
F           -3.08752345124784        2.52278936303840        1.35677429308671
C           -4.66083068004062        1.40691730319816        0.05133718707569
H           -9.29939018746039       -1.23467357690163       -0.10537538176201
H           -8.72883601052390       -1.20230129633629       -1.77397760007306
H           -9.15864972621583        0.30189076928476       -0.95960486607709
H           -6.83159765183158       -1.52415679282534       -0.17929957423198
H           -7.26315026774878       -0.02253839995353        0.63786029476651
H           -6.84536613623743        1.24515463721154       -1.45938034291049
H           -6.41496445948515       -0.26114490672834       -2.28385809204216
H           -4.28119491752704       -1.34873739228621       -1.85190061269370
H           -1.99105638375706       -1.15755532073063       -0.99206155737523
H            1.42081610027576        2.04546952534177        0.64355379291646
H            5.59203579331010        0.95506364297433        2.28797002984774
H            8.04769939211430        0.92592926907245        2.39540971832068
H            5.73947569894131       -1.32461770776825       -1.34647209919664
H            1.34227799345626       -2.15972486722672       -0.23192964055938
H           -5.38836116735416        2.14404052984056        0.35461970192280
