48
 energy: -103.813331925181 gnorm: 0.000163022367 xtb: 6.7.1 (edcfbbe)
C           -4.02915347950705        4.31546593962481       -6.40203628285133
O           -3.65128250023269        2.99311393333179       -6.70931474734860
C           -3.05398620565886        2.23556730023403       -5.76596389965219
C           -2.70688646193514        0.93603516249053       -6.15515231336805
C           -2.09081176303228        0.10553741674881       -5.25721408726713
C           -1.78851104519212        0.51945023311005       -3.95427544540872
C           -1.12071978629924       -0.46745202521322       -3.09929173537550
O           -0.97811486330971       -1.62851840789028       -3.39037925385283
O           -0.63970443905672        0.08498203418532       -1.94867826626768
C           -0.03827220978840       -0.60952801869048       -0.95118507012965
C            0.64492045173254        0.17930254022781       -0.02221843143809
C            1.25935346956058       -0.41093351552666        1.05824556860898
F            1.92332597461639        0.38234379389154        1.90962719718096
C            1.23800978784215       -1.79344926631106        1.26765767040850
C            1.92450495116960       -2.45623808312057        2.40699743860939
O            2.41251892148166       -3.54927707809051        2.37497325550928
O            1.92722850137507       -1.62905153909360        3.47909992451773
C            2.51710724395629       -1.92171928409177        4.67730913596766
C            2.79449697763097       -3.20503518732404        5.14387444702546
C            3.36182401132133       -3.35586262211034        6.39200335251149
C            3.66413336219106       -2.25626156347517        7.18977519338555
N            4.27188802550018       -2.48404598679308        8.48179543798760
O            4.20048586265613       -3.61033714098539        8.92425398861651
O            4.81601465681883       -1.55575101293651        9.02945154459030
C            3.37262198733732       -0.97625116513244        6.71220033392973
F            3.60792688807316        0.10939523189767        7.44616037341118
C            2.79942640411096       -0.80918562896547        5.46766557134877
C            0.55060478218094       -2.54875433262318        0.31341028823740
F            0.46380811440487       -3.86959631163744        0.47344825597019
C           -0.08952569524325       -1.98906035544932       -0.77625262771547
C           -2.14926463324844        1.82284435722794       -3.55479732569441
O           -1.88143234473178        2.19113075463403       -2.28508455607125
C           -2.27232885885856        3.46570677155734       -1.82931484929238
C           -2.77788171550357        2.66259388472981       -4.47145410677188
H           -4.47480379354538        4.71159916873905       -7.31273110522501
H           -3.16385952975277        4.92713745868172       -6.12878593402530
H           -4.76954841717735        4.34461378046674       -5.59667600311449
H           -2.93340275818202        0.61918438930751       -7.15923887068651
H           -1.81450788458355       -0.89971489097972       -5.53514154870920
H            0.68641740670305        1.24720577139765       -0.15859454856074
H            2.57880269787183       -4.06943789876222        4.53878455192336
H            3.58559312272403       -4.33902637894382        6.77798732548778
H            2.57167409833987        0.17907828193386        5.10207763526568
H           -0.60330390376992       -2.62910697732704       -1.47446515438745
H           -1.97480502550273        3.50220270639944       -0.78262361146095
H           -3.35551358058325        3.60518149035235       -1.89893729981201
H           -1.76181666316926        4.26465614847127       -2.37595333838575
H           -3.05325014173335        3.65924612183443       -4.17099807762380
