25
 energy: -39.739646187417 gnorm: 0.000151889555 xtb: 6.7.1 (edcfbbe)
H           -5.79422963597466       -0.26803229717236        2.02629904017537
O           -4.82790793529372       -0.34675677357840        2.02741674295006
C           -4.34702668009182        0.05704615482006        0.83650639282161
O           -5.08053028090435        0.44329096868848       -0.04207977113899
C           -2.88121326072464       -0.02494472297326        0.73555233808918
C           -2.26843221183752        0.36569247521012       -0.45216447231169
H           -2.89010616890074        0.71762802459765       -1.26147718149414
C           -0.89744801691840        0.30595353403759       -0.59645608027322
H           -0.45143732627170        0.61557608749715       -1.52826564935029
C           -0.10830948494436       -0.15165491537656        0.45886838089978
O            1.23838164169041       -0.25548888060157        0.43405111339129
C            1.94433941541007        0.11266098998323       -0.73629866283823
H            1.61080076844097       -0.49691401109920       -1.58728591027263
H            1.76455468391954        1.17108090573424       -0.96984615184683
C            3.42858423607089       -0.12118945094078       -0.47509027951713
H            3.72766142363030        0.47448243569666        0.38855139412875
H            3.57541763373050       -1.17222043139247       -0.22217268542572
C            4.27276256624035        0.24992533210707       -1.68649127201044
H            3.98832803241068       -0.34730401360231       -2.54992179732472
H            4.14255299858742        1.30014997081058       -1.93781615358649
H            5.32487172016857        0.07444207860724       -1.47933221806180
C           -0.72475357729490       -0.54333880139734        1.65377167562950
H           -0.09639362964800       -0.89334862116047        2.45748553797789
C           -2.09057855503100       -0.48171422274810        1.79194415860687
H           -2.55987835646393       -0.78502181574724        2.71426151078192
