53
 energy: -104.773550201298 gnorm: 0.000321782285 xtb: 6.7.1 (edcfbbe)
C           -3.84521819966558        1.26106475883092        0.81368837430675
C           -2.39830203633275        0.79512683189998        0.83840487482863
O           -1.92176880108990        0.81400948329888       -0.50064850834849
C           -0.64945664774129        0.48330672642376       -0.75481034949514
C            0.24326823530256        0.08121559479222        0.23993605460496
C            1.55036437734667       -0.23821204852063       -0.07591515950427
O            2.41826114035696       -0.69667168481656        0.90246765031708
C            2.47341824312837       -0.08208170045548        2.09820598695157
O            2.00363336398233        0.98690578250318        2.36180101604523
C            3.34512102154007       -0.88308077174710        3.02094565513489
C            4.61785752408631       -0.44450667684118        3.34895452321885
C            5.44309333040162       -1.19684005275511        4.16792282634998
C            5.00962828626276       -2.42055503176597        4.68332558545786
O            5.73345774588500       -3.22799543925992        5.48009149195438
C            7.04307647650203       -2.84462881061610        5.84131028552365
C            3.72169506883470       -2.86281129383021        4.37197352014213
C            2.91052086064583       -2.09698104412294        3.55622405932719
N            1.56803884146497       -2.54384560728136        3.29045904625471
O            0.79197103604421       -1.72640158884293        2.83579523325234
O            1.28801392370454       -3.69068027869587        3.54607417266292
C            2.01876738826921       -0.17490198918409       -1.38272709240533
C            1.14146689530985        0.21398257019662       -2.36831273100318
C           -0.18607683421146        0.54361859788685       -2.08791155905119
C           -1.01039662491448        0.92276949690675       -3.25290095597928
O           -0.56484628467472        1.04015353885062       -4.36839190627067
O           -2.30611320349483        1.11973398634557       -2.92683230927865
C           -3.30585277957581        1.41000297193975       -3.81091184829407
C           -4.50285650902287        1.81275671451614       -3.20816168650502
C           -5.60543976619648        2.10221628993493       -3.97700818159737
C           -5.51663274381829        1.98895116873807       -5.36205602059998
N           -6.66647737582085        2.28607160061992       -6.17195873435802
O           -7.68329037285309        2.62741251456344       -5.60375381963938
O           -6.55430683665016        2.17696198384628       -7.37504609951679
C           -4.33254923034296        1.58892267389117       -5.96823679512006
C           -3.22425251567746        1.29714978893037       -5.19789716649006
H           -4.24978260084091        1.25309846716702        1.82155299021176
H           -4.43836637816947        0.59935227287309        0.18810147833918
H           -3.90446007205931        2.27106701643218        0.41681163899778
H           -2.33353703328715       -0.22186211143143        1.24492582877761
H           -1.79234099901473        1.46555516219580        1.46050356087035
H           -0.06803992778510       -0.00861087240444        1.26678528115132
H            4.96867916753594        0.49623911704961        2.95431999258056
H            6.42635845061286       -0.82035306266889        4.39900275460683
H            7.41798780212580       -3.64918241524374        6.47098830335402
H            7.04369063549979       -1.90995618441194        6.40938398058472
H            7.68645299358324       -2.74290822818819        4.96263128714377
H            3.36035448300453       -3.79501909064028        4.77697516568951
H            3.04140407171196       -0.43278520454485       -1.60257537886070
H            1.46133416464225        0.27474594505428       -3.39727250203063
H           -4.53192584683402        1.88519504128407       -2.13340574875254
H           -6.53730198442795        2.41461261031489       -3.53136051158380
H           -4.29341892190228        1.50796656925324       -7.04379880876991
H           -2.30492500132843        0.99067591172955       -5.66767874518168
