57
 energy: -112.198681412775 gnorm: 0.000267616585 xtb: 6.7.1 (edcfbbe)
C           -1.68732365494135        2.93991015499989       -7.08311682240167
C           -0.86828450473124        1.66740780227351       -7.26280171608120
C            0.22836699279599        1.56027715376953       -6.20597022046860
C            1.10455924363894        0.31475733371035       -6.37030509980001
C            0.37903087032881       -0.95057309641352       -5.89483218901251
O            0.16881149847757       -0.91635030498577       -4.49598273029371
C            1.36789769574122       -0.78266526561788       -3.79218303393683
C            1.08296120400392       -0.74898001020124       -2.30984669607905
C           -0.13604092523405       -1.18510255699626       -1.81514220499004
C           -0.36682588042160       -1.14246059419647       -0.45412750976888
F           -1.54937344383845       -1.58981431760703        0.00501613099873
C            0.58027203470053       -0.68730818608174        0.46273429978530
C            0.31783466243476       -0.65223611207776        1.91115932069711
C            1.24727179531323       -1.15970145722931        2.81532613038516
C            0.99383783595112       -1.12330127014170        4.17146891084114
C           -0.18091114977458       -0.56781341547295        4.67001879901015
C           -0.39591198825535       -0.53832973499172        6.13054733170497
C           -0.49228337590979        0.66717067024959        6.81828706225724
C           -0.67572967982513        0.65695550483180        8.18652520669312
F           -0.75900248549114        1.82165419602750        8.83732091768278
C           -0.76764187079045       -0.53297642315100        8.91428282901483
C           -0.95808568552178       -0.53038224384844       10.31631190009980
N           -1.10720474446604       -0.52950400648676       11.45096479018246
C           -0.65664213580062       -1.72650571089636        8.19529422631226
F           -0.72985269841174       -2.89027473336000        8.85171439612515
C           -0.46541016801049       -1.74033478393272        6.82927321707698
C           -1.11720671844601       -0.07323770469453        3.75853427728729
C           -2.42283334723696        0.50444698479233        4.23738353061875
F           -2.96884184361758       -0.19700633143929        5.24597196651717
F           -2.28741315089700        1.76758870652094        4.69014708282030
F           -3.34895017952338        0.55758568432209        3.27392383818262
C           -0.87062806672008       -0.11553363194705        2.39491443424236
C            1.79293904297924       -0.26435546393450       -0.08195578712742
F            2.74631247679835        0.20330962426774        0.74573913316355
C            2.05555617863767       -0.28319760449106       -1.43684619025329
O            2.06643765463585        0.38151187522973       -4.13583796087197
C            2.37473552155963        0.42073623489330       -5.51581133475918
H           -2.46341167187540        3.00542542660448       -7.84185544653012
H           -1.05172791012855        3.81871839197062       -7.16562179889663
H           -2.16153571172266        2.95156632202397       -6.10459713283487
H           -0.41328808572931        1.66544113917400       -8.25641807566462
H           -1.53334911037192        0.80442176791992       -7.20066254682566
H           -0.21840618592874        1.54278553386211       -5.21015087629920
H            0.86385950166225        2.44663707515437       -6.26913475996041
H            1.39101863401810        0.19434861622524       -7.41911480748151
H            0.97417365145080       -1.84093300277080       -6.15504981664601
H           -0.61236060185528       -1.04377348180323       -6.33774693051098
H            2.01634312867492       -1.66603842577570       -4.02186084462221
H           -0.90058277541564       -1.54383539064032       -2.48352869480176
H            2.16723527174496       -1.59286496090761        2.45476658847631
H            1.71982111479807       -1.51680792199289        4.86648583610671
H           -0.42196803328903        1.61376253431528        6.30673907806189
H           -0.39249491897123       -2.68485487045364        6.31409665112578
H           -1.60715255557665        0.27293198342367        1.70890097333923
H            3.00035104827560        0.07766242900817       -1.80784716358869
H            3.05842222472989       -0.40874823512580       -5.76135607678190
H            2.89065597537197        1.36877810408334       -5.67414439151875
