73
 energy: -121.865687514135 gnorm: 0.000168368129 xtb: 6.7.1 (edcfbbe)
C            2.50009838785338       -0.95729848563452        6.94850674502357
C            2.14807036390018       -1.24450691167981        5.49413551348660
C            2.79363590018568       -2.53631462950547        4.99891076665216
C            2.44784866340148       -2.82658096893807        3.54123151069608
C            3.08923515316350       -4.12241237523781        3.04928474789733
C            2.82398854401294       -4.34138668890175        1.55824827415998
O            3.34587527136687       -3.29904429228226        0.75876736051801
C            4.67459724413508       -3.15622959649147        0.58099203769216
C            5.60671674884089       -4.13709996388549        0.91933498823270
C            6.96408708156144       -3.95011583832232        0.69097370401730
O            7.92229876426429       -4.85906713330257        0.98568729446913
C            7.55232449159550       -6.09640237814382        1.54684091151233
C            7.41288148354291       -2.75327458654549        0.12180656200092
C            6.50241076936034       -1.78531013234075       -0.21184427427092
C            5.13045515870191       -1.95496184021321        0.00160561525794
C            4.27003596275985       -0.82791625005286       -0.39529778792475
O            4.69755371732094        0.22055676790259       -0.81555315921378
O            2.95171367965132       -1.10037239645577       -0.26529328339998
C            1.96954275636295       -0.18402539798459       -0.54399898079450
C            2.09801606382117        1.18814027894820       -0.35320809388700
C            1.02606030102737        2.01147832371780       -0.63392427907918
C           -0.17850507023866        1.48592545605864       -1.09683436704194
C           -1.27977651604356        2.42402600881690       -1.39892610123606
O           -1.21205197843550        3.62041365566077       -1.27586276368183
O           -2.38820609638157        1.76815970512539       -1.81606814228613
C           -3.51880288863353        2.44638598951048       -2.22681084393692
C           -4.74130958676291        1.86328842030369       -1.90905467278156
C           -5.91535121477966        2.45051918385861       -2.33107994480715
C           -5.89313772040287        3.62350091473854       -3.08531210850383
C           -7.14296388138890        4.24259199505463       -3.54231735881307
C           -8.25584275098189        4.30139350103026       -2.69987803782306
C           -9.43299764168110        4.87803154870158       -3.12643889032720
C           -9.50868955606973        5.40078309534184       -4.41289883654104
N          -10.73597145527328        5.99667776889280       -4.86564821891893
O          -11.67225152457585        6.01772292284892       -4.09338644839580
O          -10.76475015776900        6.44270020211696       -5.99417531919937
C           -8.41267598603759        5.35285668483434       -5.26758746815798
C           -7.23893052045871        4.77847237247282       -4.82899962844335
C           -4.66025138059469        4.19007450819798       -3.40143654374253
C           -3.47836815100794        3.61364172995104       -2.97782569805099
C           -0.30444221808442        0.10741198210722       -1.26910250222215
C            0.76176359110112       -0.71918357947609       -0.99289255268390
H            2.03043087700314       -0.03477910722883        7.28103619423347
H            3.57667682575523       -0.85632664855833        7.06775418944054
H            2.15966672619139       -1.76668615839900        7.59093218960272
H            2.48100200327673       -0.41344002898735        4.86851057818200
H            1.06327599095721       -1.32108549630564        5.39135859966323
H            2.45943376998155       -3.36887572270724        5.62332726858059
H            3.87848800638922       -2.45839914366525        5.10528037622202
H            2.79054659870418       -2.00137805097451        2.91341581431330
H            1.36325601670238       -2.89597622983459        3.43066970798277
H            2.68938139559101       -4.97435159829147        3.60275051704769
H            4.16593257456927       -4.07639530705734        3.22660949698508
H            1.74795125039054       -4.30505209644357        1.36733776406775
H            3.19648799422474       -5.31976003503926        1.22943072648823
H            5.26574848487511       -5.06088264166516        1.35543947947270
H            8.48179250996130       -6.64726564932054        1.68024151350573
H            6.89271386639525       -6.65959867249355        0.87919654603866
H            7.06705836272374       -5.96868416412924        2.51974348054630
H            8.46913127149157       -2.62181385732157       -0.04295687806972
H            6.82323090919958       -0.85415382801631       -0.65290621589304
H            3.02729327125882        1.60532407446680       -0.00235739977478
H            1.10520191768827        3.07943883423969       -0.49885386307907
H           -4.75193251525184        0.95044528767137       -1.33412397214062
H           -6.85908630014956        1.98191078061531       -2.09590261980773
H           -8.18500454317325        3.90956630826819       -1.69691056813109
H          -10.29808350844059        4.93525819889488       -2.48358128164520
H           -8.50215022760093        5.76377744142784       -6.26158344149852
H           -6.39047779494299        4.72191608998265       -5.49334197898293
H           -4.62352164215476        5.10842623032841       -3.96759156660643
H           -2.53346252931343        4.06970650529905       -3.22389470051710
H           -1.23512635954961       -0.30608978785507       -1.62430293810251
H            0.69021099498301       -1.78804509738932       -1.11940674382651
