47
 energy: -108.210303204563 gnorm: 0.000290735843 xtb: 6.7.1 (edcfbbe)
C           -6.62027181195583        3.36218354719277       -4.69074235329194
O           -5.32946394239580        3.81985660285617       -5.03867564076367
C           -4.27836112706214        3.46602315516926       -4.28364012846415
C           -3.02997147665567        3.95845059352652       -4.68405494128277
C           -1.89956475198262        3.63598541047945       -3.97547714501085
C           -1.95646343909901        2.80700401498381       -2.85107331162653
C           -0.66107370507645        2.49699630084898       -2.19466370696008
O            0.28471112368535        3.23704052283999       -2.21131696101499
O           -0.68187177415075        1.26156863997107       -1.65173222921083
C            0.31875634939259        0.70707708509564       -0.90140271235340
C            1.47402129009414        1.36032043665980       -0.49240898246843
C            2.38303881566148        0.66978740998224        0.28951121731153
F            3.47381409668807        1.31929108519822        0.69723452171088
C            2.18601510185509       -0.64917851889277        0.69818298478436
C            3.20323829911150       -1.34861253952117        1.53762579405402
O            4.38829148222918       -1.22640469514988        1.41735481642038
O            2.57793129497398       -2.14124569561457        2.42827666555863
C            3.23380355903509       -2.92438311805061        3.34816242095704
C            4.48590675064364       -2.62811974988505        3.87829149790096
C            5.02536176293683       -3.46390075277810        4.83685954793261
C            4.31611422502914       -4.58063654183150        5.25968694636237
N            4.88369222673436       -5.44480214543869        6.26395191239019
O            5.96492961548937       -5.14264962833245        6.72068892901433
O            4.24397857545047       -6.42137480128634        6.59105262591890
C            3.06269672874012       -4.87702007132954        4.73293311247097
C            2.52239557976988       -4.04604893138039        3.77746597935137
C            1.01056837455152       -1.26579003391428        0.26388212670938
F            0.77292785171103       -2.54066362902804        0.59275873843638
C            0.08772116606430       -0.61610770515521       -0.52623784854206
C           -3.20633478910147        2.34450833687258       -2.43123208434926
C           -3.38236418621045        1.52746530065326       -1.17459174392482
F           -2.64846747975493        1.97582350747465       -0.14508808893761
F           -4.65437795460925        1.53964056409251       -0.74168030144107
F           -3.07466590947369        0.22915604851084       -1.33985217360706
C           -4.35326466268786        2.66799866506822       -3.14177327998340
H           -7.28697209993925        3.77067189329303       -5.44773312516490
H           -6.92196655357713        3.72927513706445       -3.70591105833354
H           -6.67526567710251        2.27030543426475       -4.71002956085061
H           -2.98404960750229        4.59179189912526       -5.55502604955242
H           -0.93470057561863        4.01320644926937       -4.27666038789442
H            1.67893307622488        2.38221765152847       -0.76597753268458
H            5.03310433936367       -1.76209275379442        3.54493411963719
H            5.99368757272247       -3.25983381649787        5.26749495058457
H            2.53574421058912       -5.75207378759524        5.08080402514668
H            1.55431525506512       -4.24034645805451        3.34453917395879
H           -0.81171992963470       -1.11645781218411       -0.84572949056756
H           -5.30449727022941        2.30412749373363       -2.78901126833099
