58
 energy: -116.779938202119 gnorm: 0.000271255777 xtb: 6.7.1 (edcfbbe)
C            5.63015425257301       -6.09930963621253       -4.41207890478505
C            5.19763529540741       -5.03879258886652       -3.40600087154267
C            4.31487945287461       -3.94929069864122       -4.01513969277753
C            2.96825408088785       -4.43559797534265       -4.56067035465224
C            2.23857825589024       -3.28703593452692       -5.27199482088034
O            1.82997354876854       -2.29236773833777       -4.35140048689553
C            0.99982817781311       -2.82069188898773       -3.35360552332210
C            0.64929548445252       -1.70300272713947       -2.40279719431245
C           -0.65710795793429       -1.26185135200878       -2.25980940986691
C           -0.93333140481922       -0.23955935333834       -1.37124806307372
F           -2.20129073244319        0.18305700745280       -1.26421217582590
C            0.06065641545865        0.37786036768871       -0.61417590361564
C           -0.22736114656786        1.50050280700510        0.32586660739572
O            0.44588502327787        2.48085697782183        0.45389030289591
O           -1.37443990947936        1.24862897353742        0.99089134122610
C           -1.89719162808620        2.12423351455688        1.91268591991952
C           -3.28748620663387        2.16134117745280        2.00219278592022
C           -3.90142464924612        2.97119477739101        2.93515332964284
C           -3.15458013605789        3.77357592522779        3.79552615122722
C           -3.83851145642470        4.58370346718740        4.82111171763646
C           -3.55923654806981        4.39528365641992        6.17109656065043
C           -4.22993067147198        5.13987096843457        7.12174427453675
F           -3.96359110952467        4.94375014705073        8.41759725308250
C           -5.18659873768533        6.08141128312182        6.75453478217331
F           -5.83283930480677        6.79716744389520        7.68024797323359
C           -5.46036705193890        6.25253190231168        5.40217912268575
F           -6.38365256581680        7.14475229055164        5.02360280979011
C           -4.80382346979657        5.50759545988861        4.44050037241480
C           -1.76480490168544        3.73343015295441        3.67398061553368
N           -0.92638101311574        4.59417001960542        4.48272354501969
O           -1.37715634070430        5.67127438094885        4.80281212869317
O            0.17109777051489        4.17955041523571        4.77142189389553
C           -1.12690878353727        2.91069432829058        2.75531762398368
C            1.36527957971252       -0.08510807944605       -0.79441320361890
F            2.35041969174462        0.45445833371437       -0.07380336572137
C            1.66615344449186       -1.11350262726795       -1.66636627957650
O            1.63121766997485       -3.83185035765933       -2.61861611986712
C            2.02851470813954       -4.91069793400537       -3.44501555372914
H            6.35088703896271       -6.77487925124742       -3.95757150130229
H            6.09633213792243       -5.63512063709407       -5.27838389523417
H            4.78360981850770       -6.69127115476465       -4.75107687662037
H            6.08945870814670       -4.55481063598906       -3.00178510796751
H            4.68349257456185       -5.51668245719861       -2.57065620788560
H            4.86201024428537       -3.47262284258874       -4.83213391717179
H            4.11786040663693       -3.18728417877380       -3.25895975887008
H            3.11912381670543       -5.24847022887071       -5.27439568343661
H            1.35581299216483       -3.67804254482903       -5.80334020278611
H            2.88735149201424       -2.77577388269451       -5.98444185386916
H            0.08200195797545       -3.23648445360918       -3.82856099500627
H           -1.46421979560006       -1.69825591474702       -2.82624684885307
H           -3.86414424357756        1.54309205905656        1.33266926290325
H           -4.97728449907074        2.98044567437745        3.01473736722356
H           -2.82838358019377        3.67280066828999        6.49958315168138
H           -5.03316343469844        5.67502309306726        3.40049208950996
H           -0.04887201591984        2.91527153363061        2.70459406059034
H            2.68295163794762       -1.45280239794699       -1.76944234606187
H            1.13581433097232       -5.37975465407008       -3.88955136700383
H            2.50956328612194       -5.62664467996963       -2.77929855733033
