40
 energy: -77.449402130614 gnorm: 0.000393510310 xtb: 6.7.1 (edcfbbe)
H           -1.55020533355885        7.39323867048116       -3.58922355864926
C           -1.60212216357918        6.55117024162990       -2.92067224714626
C           -2.48475767837078        6.53955712241282       -1.85311639825795
F           -3.28387547846429        7.59234338782136       -1.65223811729593
C           -2.54961970455506        5.45600631329151       -0.99449837276222
F           -3.40954312846099        5.46165773223564        0.03354111944335
C           -1.72904097947892        4.32467690463809       -1.16349887246661
O           -1.89649621351163        3.35252818099591       -0.25983331297377
C           -1.12882976230563        2.15564526245514       -0.30591691129494
H           -1.30100724334239        1.62515951612620       -1.24914223347595
H           -0.06026015418463        2.38185488603041       -0.21762841515656
C           -1.58497022118647        1.29646164906870        0.87406962076982
H           -1.43528852164324        1.86554951363507        1.79267656035363
H           -2.65166625554502        1.09653904993262        0.76572734732376
C           -0.80822694469573        0.01178276415217        0.91777502359209
C            0.41098400794292       -0.05507943515260        1.58070836197434
H            0.79470572483530        0.82240216792211        2.08104322836210
C            1.13305719424818       -1.23180636158979        1.61688140192344
H            2.08425555050840       -1.26066602953672        2.12779565797825
C            0.65810789668169       -2.37594128435000        0.97936688267073
C            1.41516676977172       -3.63376256485362        1.02928467754517
C            2.03507153772369       -4.04021430557201        2.21155925140672
H            1.94518328363781       -3.42854140355998        3.09693157304116
C            2.73726894098716       -5.22544088688072        2.27069797624995
H            3.21001464054468       -5.53955070200809        3.18959691672629
C            2.83644999196040       -6.03007595601858        1.13450275081317
C            3.55406861116463       -7.24592720901315        1.19025527649178
N            4.13794063809010       -8.23166265416413        1.23840106254864
C            2.22481601135267       -5.63147851713335       -0.05494659750884
H            2.30876581726638       -6.25512225658906       -0.93303110382266
C            1.52126124245477       -4.44628203233259       -0.10006867565819
H            1.06293384330100       -4.13266362583801       -1.02636298151815
C           -0.55753744519838       -2.30376131134146        0.30298753585620
H           -0.95249043480494       -3.18469270193507       -0.18135657697156
C           -1.27951000068270       -1.12630734237738        0.27597615783701
H           -2.22721594788124       -1.09323721262742       -0.24190430792393
C           -0.84355363279671        4.35107801644321       -2.24617043461462
F           -0.01377464142325        3.31692373841280       -2.49826305314066
C           -0.79152539258500        5.44911598950300       -3.10002335953275
F            0.07147557578022        5.42851268568699       -4.12188285273695
