59
 energy: -75.141114318275 gnorm: 0.000096020331 xtb: 6.7.1 (edcfbbe)
H            3.44031260389431        1.90884647671169        3.70216638671215
C            2.90359673246151        2.84282444535515        3.61619130291678
C            3.46289302197334        4.00577861105445        4.10765808322485
H            4.43030452767166        3.97155308980079        4.58911740405130
C            2.79869691340376        5.22061677921390        3.99236332825714
C            3.42918853349759        6.49044633554664        4.48696414456485
H            2.65338107995672        7.18893443242317        4.80740604725656
H            4.07183899340766        6.27656825281455        5.34363789940750
C            4.26353266184659        7.13776723703546        3.37966721918938
H            5.05107380352213        6.46117442014202        3.05533530843278
H            3.63721735788639        7.36825227957376        2.52082723946559
H            4.72033485238297        8.05876073584012        3.73485841015199
C            1.55994858782130        5.24028616521957        3.36449910746429
H            1.02741262581213        6.17591337173232        3.26782835660936
C            0.99691734445565        4.08200652059754        2.86507126696604
H            0.02800347496637        4.11978429129930        2.39041790514372
C            1.66255508475825        2.86539631436404        2.98474636068567
C            1.07380626440593        1.62039716818806        2.46996462045922
C            1.09873920575085        0.44730311040492        3.22046603546688
H            1.54382469636272        0.47014077482157        4.20412129381157
C            0.54985570981434       -0.72706743881237        2.74288058191353
H            0.58324632136852       -1.61493207768436        3.35766008110673
C           -0.04442781285211       -0.78689601160253        1.48815785537638
C           -0.62890948817674       -2.07261794872908        0.96816602818583
H           -0.51549200544406       -2.84085474133231        1.74175470445713
C            0.11630553525240       -2.54805241867476       -0.28417846448382
H            0.06252155875705       -1.78205631358647       -1.05776806702185
H            1.17192143173846       -2.69377136274294       -0.04226999736017
C           -0.47348887305252       -3.85616485382125       -0.80250364322651
H            0.06779751372536       -4.17269732291988       -1.69514623083015
H           -0.33278637566241       -4.63058277290772       -0.04383678492382
C           -1.97137285652733       -3.74428604541976       -1.10611140222541
H           -2.34571339649284       -4.75075681058898       -1.33134125205975
C           -2.28146534081656       -2.86428330173474       -2.32322558079047
H           -3.35839859126744       -2.67763665549998       -2.34648608585568
H           -1.78576092363951       -1.89814908171726       -2.23069013137183
C           -1.87423248608388       -3.50106930061624       -3.65043639343221
H           -0.79358284377967       -3.65382681443101       -3.67492322862007
H           -2.34889484019139       -4.48108515315515       -3.74365882402948
C           -2.27664540624585       -2.63111006526912       -4.83919882897028
H           -3.35916729512600       -2.48195504231974       -4.82835093939769
H           -1.80794323081611       -1.64858659817792       -4.74304329890594
C           -1.86889222971545       -3.25220643628362       -6.17282111585583
H           -0.78574506079946       -3.39459830134555       -6.18819846650193
H           -2.33250368649696       -4.23685358174130       -6.26838619635530
C           -2.28142051707204       -2.38160647866816       -7.35330295435138
H           -3.36071349905816       -2.24531711855607       -7.36767197004834
H           -1.81469237903299       -1.40121645819329       -7.28553833848616
H           -1.98100532028271       -2.84045709767008       -8.29244776013150
C           -2.69549449400373       -3.24688105120428        0.15038201672790
H           -3.76046632138815       -3.12686752704993       -0.06021670835830
H           -2.59736979879268       -4.00208362068442        0.93463118810118
C           -2.12332814101044       -1.92819119599668        0.66134154727169
H           -2.65077820040092       -1.62641508091401        1.56951326800078
H           -2.27706909158613       -1.14716670405830       -0.08297335585905
C           -0.07271421633339        0.37305862594172        0.72423387005835
H           -0.51271038462704        0.38882607859044       -0.26054152521618
C            0.47275037186616        1.54069354815396        1.21645679978104
F            0.43517829802840        2.63298971916757        0.41685188348683
