70
 energy: -151.499998092290 gnorm: 0.000157477967 xtb: 6.7.1 (edcfbbe)
C           -4.93436971518112        7.52925641519829      -10.51886593120649
O           -5.15616608892247        7.57787220853077       -9.12746397073649
C           -4.60265816315320        6.62280054598634       -8.34520424819426
C           -3.81482306929062        5.56815531579822       -8.80273556309949
C           -3.31684408285312        4.66637548418897       -7.88911252599123
C           -3.57661983064567        4.76572345589259       -6.52352021216511
C           -2.97481058271060        3.73106081843394       -5.66716406221119
O           -2.17144675655812        2.92042835239207       -6.06264950581150
O           -3.44998952825138        3.76129521149611       -4.40133135870095
C           -2.97400562135991        2.95881496673623       -3.39916448033591
C           -1.66972625397882        2.47743326850062       -3.33102497045966
C           -1.27782652777760        1.71931497114231       -2.24570198522115
C           -2.17366464648528        1.43724203849024       -1.21661337247404
C           -1.79593481861724        0.64155540432808       -0.03306786760330
O           -2.52373417090458        0.41056726215956        0.89781367474634
O           -0.51925968489475        0.18817554329396       -0.13580761272801
C            0.12660837350825       -0.51919345134294        0.84381746604932
C            1.23768667107669       -1.24864243517511        0.41955090982805
C            1.99615371371699       -1.95257817635115        1.32801803124113
C            1.68866982932528       -1.94928273905649        2.68962064154259
C            2.52259456691417       -2.68387897734759        3.65059425468235
C            3.00256494503735       -3.95265617522215        3.32962344378503
C            3.80742608232977       -4.62557272888836        4.22388563251548
F            4.25148168066512       -5.84468058751125        3.89541901464564
C            4.17744995928399       -4.07997754211232        5.45305994878028
C            5.08783030396828       -4.88308861413833        6.35415446887507
F            6.28005212041718       -5.10622568263413        5.71490064942278
F            5.44803846108300       -4.20123712726208        7.46947520291981
O            4.47328768237013       -6.04935213330348        6.66840515360894
C            5.10348878744820       -7.01252012035045        7.42988815751694
C            6.37305944004923       -6.88932040210861        7.97249793918030
C            6.88524678503580       -7.93717225590901        8.72046282584161
F            8.10981283735577       -7.81696989797272        9.24237559764893
C            6.16037586214000       -9.10129728891852        8.93975694405860
F            6.67005469330814      -10.10348811986221        9.66561490863495
C            4.88774897226185       -9.19765320289246        8.38325521047292
F            4.16575874514106      -10.30638749573163        8.57712400477709
C            4.35656715169505       -8.16811364234264        7.63375588735200
C            3.67808981776871       -2.81701433159616        5.75614544631997
F            3.98238715631281       -2.23279008504585        6.91690218957773
C            2.86427188408252       -2.12493868801735        4.87791674983098
C            0.57114305161466       -1.21421781093693        3.07995798657593
F            0.20885104414176       -1.19606620044279        4.37594612708906
C           -0.21408566435371       -0.50596650802757        2.18989629971689
C           -3.47736219666200        1.93298396378157       -1.28754913102260
C           -3.87466790040457        2.68659690965889       -2.36789154275768
C           -4.36955144847480        5.83901392592420       -6.05730934517775
O           -4.58933758031687        5.93397567111382       -4.73078266844316
C           -5.34923509980720        7.01106400830684       -4.23337964119700
C           -4.86637040190306        6.74688441054484       -6.98080294272302
H           -5.46993462422206        8.38283219367960      -10.93092216600001
H           -5.33069063435317        6.60777478133266      -10.95542549904111
H           -3.87057267880438        7.61925593139923      -10.75778512641832
H           -3.58995940065497        5.44629955852436       -9.84908739107068
H           -2.70259865974836        3.84179267894033       -8.21768133882871
H           -0.97109968346324        2.68905364958818       -4.12346176223951
H           -0.26692251069202        1.34754433734236       -2.19240897281698
H            1.49093712783425       -1.24500975905462       -0.62833420028664
H            2.86361248053422       -2.49669443110485        0.98893004891700
H            2.74052940200834       -4.43024218886423        2.39950204155434
H            6.98753493944603       -6.01377630560526        7.84124705963362
H            3.37203648683176       -8.25749795868873        7.20676649565063
H            2.51631709279832       -1.14645315407273        5.16636331610412
H           -1.07374991595574        0.03112516494477        2.55457004246933
H           -4.16096923069630        1.71103276866525       -0.48241660598363
H           -4.87575218174104        3.08095671001168       -2.44078501767273
H           -5.37192279411079        6.87433441527913       -3.15342952705201
H           -6.37172684958004        6.99540712647205       -4.62237979689035
H           -4.88387370889478        7.97338881361633       -4.46692793452395
H           -5.47540544108527        7.58257793616028       -6.67903549442595
