52
 energy: -102.018253337309 gnorm: 0.000414225071 xtb: 6.7.1 (edcfbbe)
C            9.60117232226596        0.83363459915532        0.26131679044448
C            8.13275334626359        0.74233771402948       -0.12629508059846
C            7.26877182749337        1.72168817807855        0.67592592436433
O            5.89826653683000        1.55884628611291        0.36129472842305
C            5.46228481017032        0.24945472441966        0.59676163449855
C            4.01208350081620        0.14561480594066        0.19353073399937
C            3.61326992053571        0.68992206267035       -1.01809585089251
C            2.29476107049593        0.57224433790977       -1.41400763633641
F            1.92195952755364        1.12528780694340       -2.57077429427041
C            1.33742984229986       -0.07229274196050       -0.62925486420455
C           -0.07476188987724       -0.21229900971582       -1.10085034747867
O           -0.38743230942187       -0.46268643729260       -2.22970847763662
O           -0.91386843726397       -0.00097262801881       -0.07315733335302
C           -2.28263829573747       -0.12311052156796       -0.15729373801168
C           -2.99691380330481        0.48535366662047        0.87306266553550
C           -4.37110411289204        0.39413270061060        0.91067384156313
C           -5.08184035708786       -0.29153079131702       -0.07530689247701
C           -6.54788479545070       -0.38160934684273       -0.02843429284956
C           -7.31453543970286       -0.19813812949666       -1.18031217722912
C           -8.69028846727411       -0.28107628287512       -1.12519688661824
C           -9.30904862895031       -0.55202348338682        0.08944620706864
N          -10.74455243224202       -0.64223594366651        0.15150738373497
O          -11.36525567959797       -0.47697405530332       -0.87726802093441
O          -11.24798881810167       -0.87478699085603        1.23073636948512
C           -8.56170648241422       -0.73791563648101        1.24714153361647
C           -7.18754423006046       -0.64945822462187        1.18386982334398
C           -4.33524181232793       -0.88966494735178       -1.08823048502981
F           -4.96237343599137       -1.59888392243660       -2.04504115582931
C           -2.95526304599761       -0.82631372022977       -1.14608311701214
C            1.77708076430151       -0.60584524355685        0.58072538963304
F            0.91015449260564       -1.26174943507815        1.36494574301368
C            3.09189037355831       -0.50964008332917        0.99716138661127
O            6.17491851676879       -0.69375794830215       -0.15915017067123
C            7.56120486289213       -0.65729770752990        0.12542836018371
H            9.97889557112750        1.83552197016943        0.07428353935241
H           10.18883119066710        0.12721341838039       -0.31919538585085
H            9.73385055599715        0.60679768424364        1.31705871736440
H            8.00964013563162        0.97251436739583       -1.18917352812929
H            7.50539914881142        2.75930295279104        0.43598228105712
H            7.42306736395818        1.55594858484617        1.75442927175940
H            5.58793656371624        0.01344339133037        1.67807806157188
H            4.32324931127087        1.20455533204212       -1.64299249437994
H           -2.45347719794906        1.02041864980675        1.63483340669081
H           -4.91588409093462        0.88171098761201        1.70421198860639
H           -6.83106072605690        0.01994688381216       -2.11928828386600
H           -9.29686735980348       -0.13982482788928       -2.00648013049038
H           -9.07059687075805       -0.95195535410027        2.17446669960541
H           -6.59761600680370       -0.81030280356830        2.07310196445067
H           -2.43877979928768       -1.31652041683638       -1.95438486181181
H            3.37874385551693       -0.94937474068009        1.93889812205272
H            8.01552526244061       -1.40289695739440       -0.52853092293438
H            7.73138385131002       -0.94476277323166        1.17562386086562
