52
 energy: -110.452904328674 gnorm: 0.000286473389 xtb: 6.7.1 (edcfbbe)
C            9.41602587327244        0.35229572612417        0.25766583601885
C            7.94168647596575        0.41574413061232       -0.11296859323428
C            7.18084391991064        1.42956015125335        0.74859520915310
O            5.79714226367566        1.40715089958237        0.44973072595009
C            5.24860922200576        0.13471243161693        0.63426675493791
C            3.78520465285206        0.16469998681880        0.26601517905226
C            3.35327908987596        0.99099505492687       -0.75990674737034
C            2.01961699165935        0.98182563770571       -1.12246323885575
F            1.61466065682163        1.80465981565916       -2.09167407114936
C            1.07993482511371        0.16985722101252       -0.48443647121273
C           -0.34670835908490        0.16543183988920       -0.92169345716933
O           -0.71838631363761        0.23836389223840       -2.05611463782246
O           -1.14918414363177        0.04386657611114        0.15728332322630
C           -2.51713516464386       -0.03739218222230        0.05988340891267
C           -3.15159808753424       -0.76925464384395        1.06263753857229
C           -4.52569784319078       -0.88759751893596        1.07265882085847
C           -5.30886910812238       -0.27293017058360        0.09779835470980
C           -6.76979007176643       -0.47630333751333        0.10016971243010
C           -7.51073145730399       -0.14283214729200        1.22717160132089
C           -8.87658659940490       -0.35483821705543        1.24024661406651
F           -9.58152638288427       -0.02239793677065        2.32887427737859
C           -9.52654601050337       -0.91804817852162        0.14800893407880
F          -10.84625619127932       -1.13051760281363        0.17105633762469
C           -8.76858951420619       -1.26383313848735       -0.96681787928953
F           -9.36962756977738       -1.82474054577807       -2.02164144793905
C           -7.40456641909334       -1.04871410721575       -0.99773978418969
C           -4.65404322305937        0.48383383773586       -0.87568923931857
N           -5.40882523131437        1.24662520109412       -1.84837086419855
O           -6.51201245431890        1.62738968304996       -1.52156141069089
O           -4.87887891405488        1.47262660567610       -2.90963777433288
C           -3.27030197366751        0.59929429114641       -0.91474155250884
C            1.55439388320503       -0.64879097479299        0.54010340453045
F            0.70754153167505       -1.47394285236608        1.17240133641622
C            2.88339736741051       -0.66396942732790        0.91738300418336
O            5.85874736532531       -0.83363168198570       -0.17864285513017
C            7.24716552948239       -0.93692798061821        0.07917358781325
H            9.88235511895058        1.32403608646407        0.11763130903001
H            9.93091737858271       -0.37294373313604       -0.36697655419329
H            9.53728870757121        0.05864378906743        1.29823025176701
H            7.82941147136528        0.70879847563241       -1.16139167422654
H            7.50883249521700        2.45157949833628        0.55386910866891
H            7.33198983347199        1.19863092209736        1.81547813698058
H            5.37384238208613       -0.16338975486652        1.70110074772066
H            4.04921234431033        1.63984377914353       -1.26463939143701
H           -2.54383709118228       -1.24318225638526        1.81695017893246
H           -5.00928314261598       -1.47842456257334        1.83483967318088
H           -7.04162199025360        0.30638859511439        2.08763584110168
H           -6.85364926819177       -1.33477766078383       -1.88010335160936
H           -2.81409024459345        1.18548998541133       -1.69792419866440
H            3.19914866164397       -1.32451817930162        1.70890776106922
H            7.62090616070414       -1.68555799810056       -0.62063681532914
H            7.40616856715917       -1.29287732423799        1.10999504019424
