54
 energy: -98.681979408471 gnorm: 0.000447211932 xtb: 6.7.1 (edcfbbe)
H           -4.23445544733315       -8.98511565725195       -0.43635223704301
C           -4.66809374507540       -8.03842315121821       -0.14889284471420
C           -3.89533922708606       -6.89776415351561       -0.10075813563744
H           -2.84370702498739       -6.95614876185553       -0.33879596286159
C           -4.44754951454023       -5.67200966801767        0.27522952225276
C           -3.62285747651271       -4.45910611235918        0.31545768972371
C           -2.67164906012631       -4.21045221750258       -0.66843650514874
H           -2.54764505188983       -4.91160479919233       -1.48075432218414
C           -1.90021166451655       -3.06286417765409       -0.65226391688209
H           -1.18168991440054       -2.90519026815463       -1.44128218405285
C           -2.05936590139244       -2.13163936282954        0.36923475106036
O           -1.36394019409399       -0.97173893771771        0.48675524014917
C           -0.40748394024189       -0.64238294185034       -0.49912944957584
H            0.39223626514846       -1.39608057076042       -0.52070870530675
H           -0.88137457988355       -0.60628575023492       -1.49036862867999
C            0.16877315264018        0.72543101699144       -0.14898592337457
H           -0.65243116052634        1.44214680092871       -0.09594049343885
H            0.62640631779127        0.66999021820858        0.83964329201264
C            1.19740753060024        1.18346349880354       -1.17844395080728
H            2.02248876759610        0.46880077941558       -1.21012304376669
H            0.73547180955925        1.20056760347440       -2.16860529309793
C            1.74116255188927        2.57183968272288       -0.85238232848105
H            0.91280249470371        3.28301878992009       -0.81645464563901
H            2.21443238166677        2.55563348292434        0.13021588598246
C            2.76177083477891        3.03573741860832       -1.88963217615028
H            3.60471540645898        2.34372870922189       -1.90757082846550
H            2.30722668063554        3.04979152123043       -2.88130037140160
C            3.28471218455601        4.43452211799524       -1.58762261712750
H            3.93972248543140        4.77997852530513       -2.39478896485211
H            2.45115320121738        5.13650252056438       -1.47796137057730
O            4.01909821932384        4.35421469030339       -0.36776752132897
C            4.58005410346985        5.42613718565599        0.18348101169399
C            4.58419608918906        6.74386865091820       -0.29494875201214
F            3.96829242249313        7.06777711303010       -1.44867242297715
C            5.22292847430391        7.76315849883552        0.39935137361696
F            5.19329010835690        8.99655394887063       -0.10464806588292
C            5.88903345538857        7.52416134919141        1.60120924079155
C            6.53830227377284        8.57013048224186        2.29901556842450
N            7.06360524708558        9.41541237974652        2.86329762626445
C            5.89263221906035        6.21277761009091        2.09197388328705
F            6.51561840638549        5.93907575077710        3.23713783871398
C            5.25587513866241        5.20057001630902        1.40107673019358
F            5.26681789390960        3.95307157357037        1.88594816077425
C           -3.00469221811626       -2.37982516666142        1.36785050820444
H           -3.11268978945199       -1.65558147111545        2.15972681760820
C           -3.77507117016308       -3.51931214407975        1.33649806920574
H           -4.48869474254537       -3.69919346561670        2.12674833623067
C           -5.80282577262751       -5.62088149042616        0.60587749941936
H           -6.24673342275514       -4.67633991063945        0.88281452134097
C           -6.58719441662537       -6.75360228663892        0.55771866962227
H           -7.63706326401389       -6.70677916832999        0.80752482359326
C           -6.02343824841832       -7.97295741739205        0.17833924996380
C           -6.82242029459723       -9.13622213159187        0.12342048338672
N           -7.47157887415940      -10.08056075325517        0.07806486796519
