44
 energy: -92.366918025088 gnorm: 0.000179190882 xtb: 6.7.1 (edcfbbe)
C            0.63382272001010        4.13030802665262       -8.28459177671418
O            0.57701332889849        2.73063404763257       -8.10260542655748
C            0.33573980385587        2.24073716569374       -6.87627159427114
C            0.12335692209732        3.01458685499472       -5.73626405756731
C           -0.10609917593156        2.39096995699123       -4.52489115239394
F           -0.32756995291967        3.17895547036763       -3.46330831859012
C           -0.14925552544098        1.00623517130688       -4.37898206434393
C           -0.42982817481079        0.32864251378007       -3.08335560329272
O           -1.06007015525174       -0.68490803885307       -2.96800275201102
O            0.11321648916397        1.03251135075368       -2.07202346836590
C            0.01801868195855        0.64775320346357       -0.75237269429676
C            0.02761375066896        1.68690345627115        0.17658758834614
C           -0.01253191030878        1.39945696991537        1.52231093405200
C           -0.06079909423465        0.07358057204665        1.95709531670484
C           -0.09744023575645       -0.17547548647634        3.41375391845657
O           -0.11346383029551        0.68930312855982        4.25063073575470
O           -0.08490478315908       -1.50524115448203        3.68232456137260
C           -0.12772738252633       -2.04298486755102        4.94274817473487
C            0.30162413324671       -3.37106462080407        5.02299214571476
C            0.27799921059825       -4.03498795297372        6.22791981408623
C           -0.17810335904645       -3.36874591394530        7.36139967475582
N           -0.20129795548580       -4.05677098374269        8.62591083201479
O            0.18261978601061       -5.20710209124915        8.64715056623652
O           -0.60318735662848       -3.44555478398641        9.59285325878832
C           -0.61263150835201       -2.05173849844503        7.28753299532203
C           -0.59222831004227       -1.38423091152401        6.07867070186761
C           -0.06773812954007       -0.95697070877291        1.02025942254794
C           -0.02578341913628       -0.67655588154839       -0.33200680206935
C            0.05685446035422        0.26108505689496       -5.54588714028123
F            0.05765772715784       -1.07234937378741       -5.47531103766062
C            0.30238592207563        0.84669356305361       -6.76592839611966
H            0.85059717629964        4.27825189495825       -9.34065100074464
H            1.43052688286688        4.57811960426462       -7.68440287523085
H           -0.32159910914512        4.60276276938537       -8.04071497979608
H            0.12784519540177        4.09152387137068       -5.76063267154296
H            0.06547352947179        2.70288976537433       -0.18308777959887
H           -0.00806316553556        2.18778165239481        2.25923548816454
H            0.64924301365413       -3.85865313189626        4.12630387080091
H            0.60710729118240       -5.05918189540242        6.31256116788997
H           -0.96556468738586       -1.56253207126688        8.18249571012189
H           -0.92488422968838       -0.36163675898834        6.02088291829976
H           -0.10369689441968       -1.98276165595207        1.35054336847056
H           -0.03247896403043       -1.47860785270414       -1.05162573592596
H            0.46828128409850        0.23835856822572       -7.63924583712913
