59
 energy: -78.034445326614 gnorm: 0.000561990219 xtb: 6.7.1 (edcfbbe)
H            0.60342513674796        5.21631641122549       -1.12704498937448
C            1.26202658124299        5.08669189587642       -0.28506385036034
C            1.88766159681747        6.18257856138791        0.28355560386454
H            1.70072877747430        7.16268266891857       -0.13091534120961
C            2.74625742030513        6.05184922750696        1.36592006074608
C            3.37398702048100        7.25860690826469        1.99955901404605
H            4.32798331965194        6.98666873737023        2.45599116166775
H            3.56286381343444        8.02163520180586        1.24166300178053
C            2.45107638034558        7.84136198497972        3.07711894763695
H            1.49688044243339        8.11204246325441        2.61997837500162
H            2.25134710926259        7.07369646861080        3.82805632809635
C            3.06518930283812        9.06468981517614        3.74495067739600
H            4.00858803621364        8.80709108554307        4.22185916430715
H            3.25513632315237        9.84574373827467        3.01177262609339
H            2.39465717924405        9.46201447978262        4.50344887559575
C            2.96821027026335        4.77994679362764        1.88134697052533
H            3.63126911738254        4.65220509565921        2.72484895634892
C            2.35563140819939        3.67565632018777        1.32631516496853
H            2.52763664425344        2.68696560651725        1.72301708399892
C            1.49915241338804        3.82368265070375        0.23814347983330
O            0.93085242859452        2.64227584242893       -0.20810731415664
C            0.22270723759635        2.50155953168173       -1.34174907044666
O           -0.00279787854352        3.37844151469162       -2.14049190525253
C           -0.25274242167032        1.10674865267148       -1.50291230808618
C            0.06475419278429        0.09544406324161       -0.59919951910437
H            0.68229085179585        0.31847739973144        0.25684888960408
C           -0.40817580932090       -1.18508765445440       -0.80031364243624
H           -0.14912991760725       -1.95621783209583       -0.09015252100177
C           -1.20791319915110       -1.49371616818806       -1.89767186983234
C           -1.72811883714966       -2.88878118295068       -2.11568766816960
H           -2.32940868995716       -2.89395730117871       -3.03223394509743
C           -2.62738371771147       -3.33709130419010       -0.95827246600076
H           -2.06650106854327       -3.31156410801747       -0.02382267960149
H           -3.46232240051084       -2.63952535249266       -0.85715073689767
C           -3.16594663959279       -4.74332830040051       -1.20624176500170
H           -3.79608764374085       -5.04496978152512       -0.36825408948490
H           -3.79666868985029       -4.72552248205051       -2.09882189495051
C           -2.05090808558147       -5.77253482122799       -1.42300024531447
H           -2.51775853428775       -6.71052580918356       -1.74881109703323
C           -1.25800932342446       -6.08397194829666       -0.14754557930070
H           -0.35470038377132       -6.63234994306432       -0.42753365515882
H           -0.94167974718819       -5.16176064665420        0.34005323152686
C           -2.04120867441503       -6.92929579367874        0.85535174709347
H           -2.93073450164782       -6.38830836575295        1.18316862910570
H           -2.37369260071135       -7.84980353408410        0.36949615869350
C           -1.19620238256078       -7.27958242908517        2.07448119633186
H           -0.31282757608007       -7.84183191700200        1.77879637164159
H           -0.87042780476586       -6.37643441420146        2.58647750961271
H           -1.76743946468425       -7.88321644516725        2.77612190573070
C           -1.13951254095388       -5.28927361118619       -2.55721295261624
H           -0.31493805770431       -5.99250188883631       -2.69308286435536
H           -1.71480202796426       -5.27256709682246       -3.48660256281128
C           -0.58409815397985       -3.89250803718504       -2.29725724128433
H            0.03935100986817       -3.58261852030576       -3.13936234155064
H            0.04575430041103       -3.90454854489905       -1.40764102780701
C           -1.51878383731959       -0.47737002349668       -2.79532944132464
H           -2.13761192173287       -0.69658273324954       -3.65384702680488
C           -1.04857056338437        0.80610721410063       -2.60573621410879
H           -1.28830521870212        1.59615765770669       -3.30130130530901
