52
 energy: -98.380141820104 gnorm: 0.000223238976 xtb: 6.7.1 (edcfbbe)
C           -2.83432077528314       -5.06571988881784        6.62282502041257
O           -3.28427501544444       -5.23712745293390        5.29821055967147
C           -2.80928135896996       -4.41377729994471        4.33491122258476
C           -1.88455717923966       -3.39123227984860        4.53905253018984
C           -1.48937186025881       -2.61863282928183        3.46825166903494
C           -1.98568037990065       -2.82282328244084        2.18328523606284
C           -1.57513518763511       -1.96340360442065        1.06237821764084
O           -2.04890539263557       -1.95675824038406       -0.04177488523566
O           -0.57317669421906       -1.11650752832228        1.45414950321322
C            0.01234280146212       -0.20642518529056        0.61082180002181
C            0.11034992986711       -0.34667063439593       -0.76948399754075
C            0.75271943256681        0.63647273988781       -1.49087010666602
C            1.31695146125179        1.75580826236713       -0.88077496330644
C            1.97736166732240        2.80234638895290       -1.67551621585491
O            2.47626248548668        3.81323710974625       -1.26188269091450
O            1.97711300314868        2.46591633084024       -3.00548767652166
C            2.43275801495525        3.30703254195101       -3.98194447362937
C            2.36387454403241        4.69739904682552       -3.91302072321054
C            2.80020142086077        5.45267445391973       -4.98241401394051
C            3.29695766348646        4.82485898957309       -6.11824335748969
N            3.74509305788934        5.61771189130889       -7.23069653442614
O            3.66887767485324        6.82451339216361       -7.13196251587004
O            4.17078859106581        5.03268383243920       -8.20510583365213
C            3.36095486441923        3.43671571774852       -6.19630448506574
C            2.92953636749392        2.68239472991098       -5.12932277121261
C            1.23509744652618        1.88341077884624        0.52642043733347
O            1.79894278275853        2.96409843518481        1.08465894198202
C            1.74535315326087        3.13130138626668        2.48255235589419
C            0.57717808710173        0.89371750666086        1.24803564628403
C           -2.91943456287508       -3.86752466744053        1.97325547561551
O           -3.36478796860243       -4.05260841800069        0.72176806586306
C           -4.28860851635697       -5.08316156528288        0.45988021166178
C           -3.31178303643146       -4.64327936623026        3.05490588222002
H           -3.35104782278206       -5.82422015469455        7.20834505294333
H           -3.09120154454391       -4.07426871638720        7.00768724008717
H           -1.75420841648979       -5.22059974443317        6.70254915601281
H           -1.47613609450136       -3.19199684545554        5.51597633817406
H           -0.77715338018012       -1.82495667774410        3.62628454035627
H           -0.31990554518053       -1.19758938680295       -1.26809836130131
H            0.82347828541281        0.54071387554891       -2.56217614245577
H            1.98019930097244        5.18055348246222       -3.03018913613367
H            2.75748334345472        6.53068188422365       -4.95315120885751
H            3.74940322229985        2.97509785858568       -7.09102283258089
H            2.96496295519105        1.60507014773195       -5.15916942279970
H            2.26936871444508        4.06454199711742        2.68041692233217
H            2.25123725815871        2.31324664027533        3.00457902504697
H            0.71368608779123        3.21180855386350        2.83858010085389
H            0.48340191211742        0.95045966883158        2.32003921486090
H           -4.48988383541871       -5.02406972761530       -0.60819990342041
H           -5.22106441896181       -4.93735248074745        1.01348184008035
H           -3.87163041728430       -6.06664579395018        0.69798824238106
H           -4.02036612644455       -5.44714587237453        2.94555180325663
