59
 energy: -116.425568949377 gnorm: 0.000217057807 xtb: 6.7.1 (edcfbbe)
C            5.71319754405729       -0.26012286438675       -6.25128158102879
C            4.38697539663918        0.04304110415466       -6.93797991179734
C            3.53364786597206        0.99259429791283       -6.10082042844990
C            2.18724517361034        1.32275175626455       -6.75292443203152
C            1.54444981156697        2.55224958695375       -6.09710066643851
O            1.17796616399587        2.28006541127903       -4.75851214519819
C            0.29253153468636        1.20121394763269       -4.67356751301511
C           -0.01509127453809        0.92540594818091       -3.22292329441324
C           -1.25519187489515        0.43336842146775       -2.84642043395356
C           -1.49454721175699        0.14798702576317       -1.51635090470343
F           -2.69987649947095       -0.34655758175802       -1.18053474521487
C           -0.53659744867387        0.32397839243719       -0.51773143793470
C           -0.80959763801314        0.00902829404537        0.89348584485553
C            0.10393792830381       -0.72843088243826        1.64574913342573
C           -0.15318841029556       -1.03006156970697        2.96613728484320
C           -1.33273160514069       -0.59793449915358        3.57464149197649
C           -1.60580780308477       -0.90444298894611        4.92090084917974
C           -1.87064869811973       -1.15461600134796        6.07263850287650
C           -2.19978415615673       -1.43648456285064        7.41146043493526
C           -3.38459906166432       -0.92579610231210        7.94917505118571
C           -3.70438567405495       -1.20607604733941        9.25928505373393
F           -4.83881669954572       -0.71632744123922        9.77252485580867
C           -2.87895557523585       -1.98970943955065       10.07541584960279
C           -3.22039621145664       -2.27005106573501       11.41834117690371
N           -3.49439629784942       -2.49866176659496       12.50616126479057
C           -1.70049621050294       -2.48460241126629        9.50497539119830
F           -0.88541541460082       -3.23815796088958       10.25429766057082
C           -1.35290975817265       -2.22145875007873        8.19831531835709
C           -2.24788935317280        0.14922395498365        2.81637528139872
C           -3.51415297306645        0.62374378169279        3.47280850562049
F           -3.27605335985075        1.40837154460654        4.54265072230611
F           -4.29372166239478        1.33906240404483        2.65354845061491
F           -4.27304435606358       -0.39221046778475        3.92557422325014
C           -1.99003156354274        0.44615828993670        1.49174612076018
C            0.69730741141714        0.81492710119833       -0.94592674178424
F            1.66265280483749        1.02694796645073       -0.03225661259557
C            0.96918378534118        1.11581486311069       -2.26529458138837
O            0.83419489128607        0.02206090016962       -5.21101118083432
C            1.18512254050830        0.17464157596120       -6.57344341714220
H            6.31485143347238       -0.93046752856561       -6.86033078575301
H            5.54258010294186       -0.73273562450415       -5.28673485530701
H            6.27777816004297        0.65533520160586       -6.08872673210910
H            3.84936287704689       -0.89196335444130       -7.10532827659303
H            4.57812292582083        0.49545043701317       -7.91416604166440
H            4.08902471484749        1.92057418594797       -5.94601153469975
H            3.34518515315292        0.54921685318332       -5.12118965851322
H            2.32550900837890        1.52062485313194       -7.81969482792387
H            0.65133861962629        2.85497769141354       -6.66776935680389
H            2.23742644078339        3.39338149642906       -6.04690158831343
H           -0.64040283614949        1.45152343389647       -5.22960012698064
H           -2.03558077309508        0.26325552887897       -3.57059310623625
H            1.01660377739263       -1.07658548442614        1.18754614400602
H            0.55386982086857       -1.60508994825164        3.54382572315421
H           -4.04371250155789       -0.31906301605289        7.34918977269713
H           -0.43596008799454       -2.62192029825100        7.79642381776701
H           -2.70262596978186        1.02637403911778        0.92632499058852
H            1.93264632223855        1.50721968746573       -2.54549801501184
H            0.27901189731308        0.37402534408105       -7.16778564937479
H            1.60480485374231       -0.78504766254973       -6.87508833321202
