37
 energy: -56.532135497371 gnorm: 0.000385478509 xtb: 6.7.1 (edcfbbe)
H           -0.96958003978128       -6.42944252851760       -0.69030697029353
C           -1.44898301961131       -5.53503881563820       -0.31981063414087
C           -0.77101167854261       -4.33490362089118       -0.29251084294478
H            0.25360831303823       -4.29431874255053       -0.63117684032638
C           -1.38186494528729       -3.17646351458151        0.19060027160784
C           -0.65811008968466       -1.90025539254140        0.21393954865294
C            0.17909598705179       -1.53380087640928       -0.83459545253845
H            0.28785243534991       -2.18961532875070       -1.68594241788357
C            0.85399400093397       -0.32662590430629       -0.83074234278466
H            1.48643946898562       -0.07880230034588       -1.66878181995834
C            0.70891436396039        0.54692314273482        0.24186057078049
O            1.31599134679108        1.75678769587974        0.35482899667025
C            2.14835622067429        2.20956304768294       -0.69255280658605
H            3.01335221524370        1.54073070319975       -0.80407069956858
H            1.59227247129742        2.22839057114837       -1.64014053616652
C            2.61836108488006        3.61666327143713       -0.33661689835180
H            3.08195558481474        3.58504275683283        0.65107892108312
H            3.37166919393432        3.92783425357385       -1.06303783129498
C            1.45328289542198        4.60321726686131       -0.32683601993618
H            1.00193274811544        4.64794014068060       -1.32100739070155
H            0.69338601515392        4.24902104211328        0.37169630499277
C            1.91493269792416        6.00580607836975        0.08415126944001
H            2.33503649902183        5.98720266178551        1.09383456318148
H            2.68438148332081        6.36972722563301       -0.60358198722354
C            0.81326945103110        6.93358691781297        0.06508391838984
N           -0.07026422975901        7.65823679112512        0.04116085377454
C           -0.12079989361405        0.18165846856342        1.30461121009841
H           -0.21797465886819        0.86262146198457        2.13543016223837
C           -0.79499762332253       -1.01751481376596        1.28666727640730
H           -1.41825041705789       -1.28780778178102        2.12595039938105
C           -2.69836283286607       -3.25414423548232        0.64843171780006
H           -3.18964775896566       -2.36213629115092        1.00753687152126
C           -3.38816447741776       -4.44748311109037        0.62332268613684
H           -4.40894703286738       -4.50017754793446        0.97283970772899
C           -2.76607879878953       -5.59889209493048        0.13784046977611
C           -3.46756214506031       -6.82435536840083        0.10827138840846
N           -4.03747483544820       -7.81917522834763        0.08257438262885
