53
 energy: -98.380348811087 gnorm: 0.000167757684 xtb: 6.7.1 (edcfbbe)
H           -5.87395988919348       -7.71746485222771       -1.32175905492154
C           -5.31918348045424       -7.01202319492079       -1.92308783148454
C           -4.68645103349390       -5.93587915989757       -1.33816134987054
H           -4.76018691623462       -5.79074576527693       -0.27064601757847
C           -3.97335977689576       -5.01625192747657       -2.10927723290415
C           -3.29899136117361       -3.87418700119816       -1.48219999385294
C           -2.64151781801666       -4.01173472325697       -0.26402603207447
H           -2.61126117866081       -4.97652130710282        0.22076787575135
C           -1.99198148576382       -2.94519684998615        0.32992354743768
H           -1.48683029065943       -3.09857076333752        1.27058246710737
C           -1.99451571062733       -1.69784143757675       -0.28673948093484
O           -1.39427468640256       -0.58263986365836        0.19840257181211
C           -0.69231542653949       -0.65447440105151        1.42346366616224
H           -1.37923721920089       -0.93298933702143        2.23472231368823
H            0.10386031856044       -1.40905950684119        1.36017445786044
C           -0.08795211746730        0.71912706645808        1.69647949983792
H           -0.88770788324511        1.46054981413674        1.66375528819971
H            0.34103595205605        0.71887524461228        2.69975001705497
C            0.98303245376839        1.07617891892305        0.66858411150520
H            1.79005504531887        0.34183955304891        0.71964342684566
H            0.54297191386268        1.02222500998922       -0.32847500949643
C            1.55397269427958        2.47142130195652        0.90256582673801
H            0.74880861874739        3.20704366190228        0.84159551529282
H            1.98580559841275        2.52564500829676        1.90322785059553
C            2.63257516742313        2.81494729044772       -0.12238912706162
H            3.43634132424380        2.07970499512211       -0.06518057175901
H            2.21341323016645        2.78858119299859       -1.12908807245976
C            3.22479819486074        4.19900115381602        0.11288593996125
H            3.91868111319622        4.45852062996714       -0.69385298714871
H            2.43031897844904        4.95170814028041        0.15817399565507
O            3.92159467643824        4.14950931084373        1.35663207935033
C            4.55707683092453        5.21672534268588        1.84227774416931
C            4.66620595823397        6.49111122409791        1.27451645503584
F            4.08993163401861        6.78376072036308        0.09336902668326
C            5.37400105216205        7.51253039475971        1.90390488396454
F            5.44681325397730        8.70834785276756        1.31722077113211
C            5.99824259827197        7.29789601970446        3.12448313690806
F            6.67591120237035        8.27997804896314        3.72282429218610
C            5.90494578086987        6.03960818363180        3.71558999281473
F            6.49404051618028        5.80776803836636        4.88897960852889
C            5.19874795087137        5.03096518104126        3.08199184024748
F            5.11271643841541        3.82671141859032        3.65835425504251
C           -2.66054171342569       -1.54933741798578       -1.50619988869261
H           -2.66397298085121       -0.57609339886306       -1.97127713420646
C           -3.29539492558812       -2.61910349019495       -2.09355653139535
H           -3.81894944196893       -2.47744329695756       -3.02730685682220
C           -3.91179361631228       -5.20634091455904       -3.49103215468595
H           -3.34804351746577       -4.51371490109443       -4.09805523624618
C           -4.53758191830773       -6.27998115504904       -4.08763930573289
H           -4.48119290376939       -6.42519888152129       -5.15662589080976
C           -5.24751458949047       -7.19236948376986       -3.30534780750523
C           -5.89017046679430       -8.29463960001472       -3.91068579004182
N           -6.41100614807668       -9.19044808692966       -4.40223309988144
