44
 energy: -64.567717638863 gnorm: 0.000161694593 xtb: 6.7.1 (edcfbbe)
H           -3.36645622779030       -4.51115715608925       -5.30340515027628
C           -3.19814778344611       -4.38007281842910       -4.24497571600990
C           -2.70630478290752       -3.18901354634291       -3.75764874341263
H           -2.47957909892766       -2.36877043528987       -4.42081411822848
C           -2.49450257883169       -3.02794558650185       -2.38956558682443
O           -1.95665181339936       -1.82011713738213       -2.00164059361166
C           -2.27992238346022       -1.23369515626074       -0.82224107685666
O           -3.08660455828172       -1.68151901732328       -0.04761563529349
C           -1.54108540995026        0.02894507083012       -0.62565733780055
C           -1.81555574093675        0.77774872660424        0.51785254776968
H           -2.55449306691901        0.40830923281755        1.21269800301819
C           -1.15159474095579        1.96524955277680        0.74667176207293
H           -1.37077443076161        2.53948096998812        1.63497444697105
C           -0.20189385185105        2.43367324800482       -0.15551492551612
C            0.54981904048539        3.70523262139312        0.10107630053416
H            0.60482814956967        4.28690504979715       -0.82204404788736
H            0.02693629575436        4.30158568686113        0.85079479453428
C            1.97734515419604        3.42126289401727        0.58972042105007
H            2.49492592832522        2.80557158641496       -0.14900703432083
H            2.51572481949350        4.36810375135484        0.67141744524886
C            1.99815468116734        2.71135472858578        1.94047882890634
H            1.47427128491119        3.32304192271498        2.67903904573226
H            1.46533946771083        1.76109182954712        1.85876451179697
C            3.42279351017764        2.45090983995619        2.42328662187890
H            3.94881932053391        1.84256015475292        1.68355182058159
H            3.95604558823742        3.40103967876097        2.50822821659725
C            3.45036008439366        1.73649750284986        3.77227786646006
H            2.92230515461231        2.34259681091177        4.51200568218995
H            2.92069690470462        0.78498256772026        3.68610928830038
C            4.87461541566539        1.48259539400985        4.25036792567076
H            5.41256664784467        0.86434128922662        3.53491555400167
H            5.41253235714330        2.42155670428995        4.36249652530646
H            4.87145046584390        0.97224706634243        5.21060889328638
C            0.06675892715973        1.68053703261274       -1.29541516870671
H            0.79980097820730        2.03744837751255       -2.00461691548736
C           -0.59074087028576        0.49140118128816       -1.53447425839963
H           -0.37375073537281       -0.08318498199912       -2.42147338438990
C           -2.76564913678091       -4.06821644893700       -1.50771958898723
H           -2.59632953743516       -3.94529624684488       -0.45068527126949
C           -3.26447235894663       -5.26007124489722       -1.99543611419889
H           -3.48239347588527       -6.07221118496383       -1.31810408010279
C           -3.48550772483175       -5.42332626880622       -3.36246296834149
C           -3.99590426357404       -6.64534060638859       -3.85678108359058
N           -4.40774560460642       -7.63632263548308       -4.26003770238255
