66
 energy: -110.137593595354 gnorm: 0.000158478725 xtb: 6.7.1 (edcfbbe)
C           -7.84732286449181        4.40308678155282       -0.46726530043902
C           -8.26790410691736        3.36035484319521       -1.49636095349145
C           -7.20019607217404        3.09735598687784       -2.55867100162253
C           -5.94177875287737        2.43483570207580       -2.00034132470720
C           -4.95577611933813        2.08487467180137       -3.11323690193405
C           -3.61784308466360        1.56072854182498       -2.59394834989748
C           -3.74505501304594        0.21146920887526       -1.88093196815469
O           -2.48581720601322       -0.32980503351840       -1.53232530437306
C           -1.69196936806319       -0.89580394932960       -2.45265357471528
C           -2.06158305013723       -1.10389449722047       -3.78177236481589
C           -1.19019559994471       -1.70434942445528       -4.68045131076492
O           -1.47626101173109       -1.94342755095621       -5.98102892471205
C           -2.73731216821756       -1.57444768143656       -6.48837555513957
C            0.08194349678208       -2.10068447264836       -4.25320355365621
C            0.45488391364038       -1.89652921611327       -2.94940263380705
C           -0.40691226458770       -1.29980131451884       -2.02495227366310
C            0.00198647276676       -1.09690944239566       -0.62737693841723
O           -0.71412619583998       -0.78415811057380        0.28656920663994
O            1.34398224120361       -1.32906221800552       -0.49382001631513
C            2.05619641045779       -1.18707244451493        0.66599860551576
C            1.59912395098588       -0.59408249351404        1.84014795720540
C            2.44987675014568       -0.49391983972920        2.92234345319679
C            3.75735080476485       -0.97286151119065        2.85878818387913
C            4.61333870432902       -0.81872091645604        4.04804253462862
O            4.27658515901761       -0.29119103230449        5.07584741734989
O            5.84160212560558       -1.37302202984582        3.84864678911261
C            6.85040417803340       -1.30551877532783        4.77327584428326
C            7.77139662347900       -2.35515446313968        4.73369534680834
C            8.85303000204463       -2.35732184541662        5.58487413677956
C            9.01525720278913       -1.30479816353025        6.48056256044154
N           10.14586722574777       -1.30139902251908        7.37122320125738
O           10.92021336553542       -2.23262136810250        7.30116090379441
O           10.25850708171479       -0.36739884529317        8.13634412369035
C            8.10520526504303       -0.25593828692116        6.52207426270931
C            7.02165386456617       -0.25062021648521        5.66681089261848
C            4.21052275422285       -1.56466199126229        1.67861262239559
C            3.36729582093311       -1.66909065865834        0.59671212758783
H           -8.67081361243510        4.61635659303145        0.21032996581796
H           -7.56101392048612        5.32981613174675       -0.96000603129457
H           -7.00617940396804        4.05231360967325        0.12458068963345
H           -9.17596020440055        3.70550998756587       -1.99644005368397
H           -8.50767262101903        2.42416704962586       -0.98712669135765
H           -6.92971658915446        4.04160178469071       -3.03715695407624
H           -7.62592687206645        2.44838283055251       -3.32849772590683
H           -6.22659623920677        1.53022758154521       -1.46028650572145
H           -5.45276766232703        3.10849452096461       -1.29586251957173
H           -4.76600013765094        2.98175541781792       -3.70758803236245
H           -5.40693780638538        1.34178415551329       -3.77647708983535
H           -3.18169480351476        2.27973987176204       -1.89855944010580
H           -2.92309742736106        1.45468317871086       -3.43075817155220
H           -4.32605860871014       -0.49735986426474       -2.48458080629636
H           -4.24904300358086        0.33767242556632       -0.92053264253103
H           -3.03961343952482       -0.80002513565592       -4.11355215915326
H           -2.72780644297732       -1.86517045068654       -7.53742042256094
H           -2.89967202075122       -0.49441541180156       -6.41536860426323
H           -3.54710257388327       -2.10275856623521       -5.97558896076233
H            0.74439660595693       -2.56351591811418       -4.96554507091632
H            1.43265805809001       -2.20699755480202       -2.61934904076757
H            0.59106858229621       -0.22121341610810        1.90557626392214
H            2.11180415200678       -0.03692836747946        3.83989569616199
H            7.61699023343565       -3.15548856749512        4.02773167401824
H            9.57606138580355       -3.15831542058109        5.57373152690520
H            8.26024278052852        0.54867862870672        7.22443663130865
H            6.31244686973983        0.55946462759348        5.69734634469158
H            5.22081789713722       -1.93666098140818        1.61617940942174
H            3.70100628865688       -2.12024766124848       -0.32471319843273
