36
 energy: -52.008040147115 gnorm: 0.000189717701 xtb: 6.7.1 (edcfbbe)
H           -3.01813499471457        7.04706647329384        0.07633332995281
O           -2.51417600632223        6.52613118841843        0.70926210189505
C           -2.25173962241421        5.25279137823394        0.16028409243210
H           -3.19266829345207        4.73175723824067       -0.07138300089291
H           -1.67540783496074        5.34720235081851       -0.77226180674805
C           -1.45295585765257        4.44664649807209        1.17907506748366
H           -0.54076721729467        4.99812629494632        1.41240671360264
H           -2.03899973651085        4.37362196679555        2.09649562164008
C           -1.10846859465485        3.05543358405338        0.66001256782236
H           -2.02697178701731        2.51086071644002        0.42840035202118
H           -0.53477037063634        3.14183961050242       -0.26590331283967
C           -0.29300722444221        2.25394024115955        1.68210644660961
H            0.61624058290705        2.80771744764024        1.92440003726144
H           -0.87739267780844        2.13895748117596        2.59672240799232
C            0.06183550229883        0.90786630272027        1.12304886722092
C            1.18460914756419        0.75184846591729        0.31884278402998
H            1.82432147107234        1.60205601188738        0.12931553851035
C            1.49395890023822       -0.47253675534358       -0.23879498921452
H            2.36176925243481       -0.56728490412704       -0.87525796138381
C            0.67932268461474       -1.58070060291132       -0.01533302764416
C            1.00085276234318       -2.87933594952148       -0.62029850765023
C            2.32092968370137       -3.32810732946327       -0.68098926956162
H            3.10768497805033       -2.72475010595924       -0.25293821878348
C            2.63064919726805       -4.54102217565139       -1.25872178829919
H            3.65362687672794       -4.88568104070310       -1.29989048025011
C            1.61458976698490       -5.33359406342336       -1.79510617185900
C            1.92692881542964       -6.57207172673242       -2.39818173432940
N            2.18197661978209       -7.57563186686213       -2.89128164344312
C            0.29010119024981       -4.89716298983016       -1.73747103340602
H           -0.49279182077181       -5.51288948973293       -2.15578041421780
C           -0.00700528535129       -3.68398885470833       -1.15347073394308
H           -1.03075597420598       -3.34111781491561       -1.12730118880501
C           -0.44699808904844       -1.42453940229017        0.78926180812017
H           -1.07846869243447       -2.27656035830169        0.99554644265625
C           -0.74700662004883       -0.19845287143531        1.35043952322866
H           -1.62090073192854       -0.09844494840654        1.97839158079341
