56
 energy: -74.327274138167 gnorm: 0.000488352421 xtb: 6.7.1 (edcfbbe)
H           -4.96966106659065       -8.19708449750996        3.32698593947367
C           -5.06866520805683       -7.43537015278899        2.56738567037589
C           -4.37854904374479       -6.24632833011941        2.67074266679406
H           -3.74451241864993       -6.07032538131857        3.52711342814704
C           -4.50807925768100       -5.25534219104517        1.69654765493530
C           -3.77129746175043       -3.99087178731180        1.81487634013391
C           -2.45119130977298       -3.97537788246924        2.26066587979042
H           -1.95676176911593       -4.90622658671004        2.49798928192941
C           -1.76103144037362       -2.78521367642809        2.37369502562776
H           -0.73621507563371       -2.79257504571403        2.71703504748645
C           -2.36639426947600       -1.57480999985799        2.05661500630542
C           -1.59617123874741       -0.29143539625178        2.14986584225221
H           -2.27979447005383        0.54584078120467        2.30353552961789
H           -0.91025519452389       -0.33235072446610        2.99897702419106
C           -0.78830228782166       -0.05437365347698        0.86818842764434
H           -0.13202600137704       -0.91081240210717        0.69672004960248
H           -1.47269066112119        0.01081248504693        0.01924311855417
C            0.04915577131288        1.21834272737407        0.95203971464845
H           -0.60819333359215        2.07689150563014        1.10862403116380
H            0.71675432317553        1.15326523477480        1.81480744291989
C            0.88074151467392        1.44042770214813       -0.30878487951981
H            1.51532057852633        0.56739036317143       -0.47919218625755
H            0.21585744513835        1.53693907158583       -1.17019132205688
C            1.75780153085230        2.68525872756637       -0.20182536229077
H            1.12523725977569        3.56227255491894       -0.04601810626190
H            2.40970170381741        2.59073116702051        0.67002828549334
C            2.61488405278446        2.89453680966876       -1.44759194269360
H            3.22555409720572        2.00467715167209       -1.61770345323966
H            1.96614554521046        3.01976474477314       -2.31751208089284
C            3.52677699305868        4.11176769077876       -1.31518550097604
H            2.91789232008644        5.00364384058186       -1.15000021851406
H            4.16933471937499        3.98520434707932       -0.44058758485879
C            4.39671870575640        4.31491362503518       -2.55305886439291
H            4.98759631001903        3.41338967666692       -2.72974040251501
H            3.75609493134385        4.46537475164794       -3.42472705082389
C            5.33525837734627        5.50998604533238       -2.40230335141702
H            4.74641078947709        6.41247622379751       -2.22232009359968
H            5.97780799048152        5.35632540013335       -1.53202615896139
C            6.20175841434837        5.70814225161935       -3.64258028157785
H            6.78943522991691        4.80790623598706       -3.83400568030281
H            5.56941959729100        5.88599766627441       -4.51482058055436
C            7.14915517792719        6.88613724188193       -3.47376470877047
H            6.60425058377517        7.82467770099651       -3.32644347542406
H            7.84577375699363        6.72771898629300       -2.64360946496429
F            7.91561030790720        7.05014024933654       -4.60363076491509
C           -3.68179726137491       -1.59085033317113        1.61036376937976
H           -4.17039995957004       -0.65947040930749        1.36143876837844
C           -4.37544703240189       -2.77906931793715        1.48789178887924
H           -5.40504724110406       -2.76644299143300        1.16074132436175
C           -5.35064550059081       -5.48905807244368        0.60898794822201
H           -5.44549752831842       -4.73785092787146       -0.16105957316835
C           -6.04313343032923       -6.67562059769327        0.49189482762492
H           -6.68958727503978       -6.85392430144419       -0.35503941934717
C           -5.90661636907600       -7.65835752042826        1.47344946978627
C           -6.61438349971340       -8.87540328773679        1.35998126549878
N           -7.18409142197379       -9.86643749296345        1.26726193906856
