45
 energy: -91.086473282504 gnorm: 0.000157360128 xtb: 6.7.1 (edcfbbe)
C           -7.26375159216632       -1.61500444971526        0.30224462211621
C           -7.52488187269263       -0.34126020865970       -0.49012106811408
C           -6.66324920681540        0.83285790514285       -0.00077581048911
C           -5.20696361484285        0.57273165416889       -0.23301739834494
C           -4.67632441935210        0.67558835108813       -1.51427999339198
C           -3.34215353894627        0.40060977444853       -1.73558603434029
F           -2.85946867788948        0.53853708018138       -2.97508162389712
C           -2.47570655395758        0.03128321644057       -0.70478053188414
C           -1.04248205788736       -0.25857387338058       -0.98668142608505
O           -0.63729596853403       -0.83575787680057       -1.95445499158037
O           -0.27835009523303        0.21999740752036        0.01864658251224
C            1.09117172456378        0.13576197118122        0.02770915909284
C            1.87934347296644        0.10404663339307       -1.11438304293004
C            3.25381872875989        0.08124375061533       -0.96841098639642
F            3.99703069479665        0.07790308114795       -2.08639762643084
C            3.89892378926860        0.10335012401681        0.26798056108298
C            5.36617901090432        0.10950222108487        0.38618575298019
C            5.99960501308333        1.00270176704180        1.25117278130162
C            7.37407389979162        1.02456628080194        1.35414897865667
C            8.15504686525530        0.14963560993073        0.59630202734195
C            9.56481752947527        0.17684859147448        0.70241363448029
N           10.70549374662020        0.21489493364312        0.79945946087871
C            7.50863325618118       -0.74205208230631       -0.26191274155559
F            8.23461382815966       -1.59908126039602       -0.99483321621398
C            6.13379942461073       -0.76876745493527       -0.37431117301382
C            3.05900001171203        0.13690716738832        1.38294804562517
F            3.60436613128355        0.13542067690643        2.61114915408584
C            1.68388043082382        0.14825865210366        1.28673779471083
C           -3.03426039207478       -0.06177490492687        0.56936663500478
F           -2.26544042838611       -0.44151935556522        1.60078160812929
C           -4.37010401853552        0.19371696996680        0.80965325819465
H           -7.90736107926965       -2.41654040444578       -0.05118093690631
H           -7.46553659951042       -1.45649385003866        1.35925975550607
H           -6.22946183003364       -1.93251191679217        0.19164541915802
H           -8.57571334038330       -0.06277114361382       -0.39362391058523
H           -7.32102115153719       -0.52162135414342       -1.54692052509990
H           -6.84735324539943        0.99245446495153        1.06221606842534
H           -6.95889253587751        1.73398987617202       -0.54135293745043
H           -5.29330035624949        0.97305398079369       -2.34750647381574
H            1.45308308954120        0.09211373470034       -2.10379813420302
H            5.41154222480214        1.69134689107022        1.83693956803015
H            7.86255947846110        1.71951913490592        2.02005315994812
H            5.67711694846984       -1.47763988061399       -1.04644172417074
H            1.07154450369480        0.16689217065107        2.17321384632062
H           -4.74655122765246        0.09564594340076        1.81564443331683
