70
 energy: -151.498500670478 gnorm: 0.000172363149 xtb: 6.7.1 (edcfbbe)
C           -9.96533575404206        7.67624207022560       -0.54077945552010
O           -9.73725467751950        7.14839544588319        0.74548654382340
C           -8.51279665251956        6.67473711880783        1.06176345783829
C           -8.37654889685675        6.14526040384137        2.35047018116458
C           -7.16856232897710        5.63295603974538        2.74445135925917
C           -6.05521208967501        5.63178765033839        1.89691988572001
C           -4.83242497590700        5.01136140716303        2.42249354882921
O           -4.78805647079940        4.36711238131152        3.44187742933385
O           -3.74591081557737        5.26294277595631        1.64586498725759
C           -2.56217840204264        4.59786573578074        1.74217895070676
C           -2.38365953204528        3.36138538348947        2.36068909724676
C           -1.16362429139564        2.72599780813660        2.27425302613507
C           -0.08550341635045        3.28951016174411        1.58896124799143
C            1.18532636361876        2.55841608762758        1.40102442019797
O            2.19920043648977        3.00033795188588        0.93864494116574
O            1.04363432092264        1.26592084061784        1.81711295657422
C            1.92952675096751        0.27493437739379        1.49067063884721
C            2.73438588775703        0.29005513010480        0.35911582112355
C            3.48047064562394       -0.83350163158777        0.05869064009656
F            4.21429549805869       -0.80623060704118       -1.06652928968097
C            3.46457618244777       -1.99864789434496        0.82494849775691
C            4.18257572416235       -3.21579044462253        0.41075765700562
C            5.49780809564661       -3.15702140322978       -0.04107388330812
C            6.13525763271873       -4.29732753505036       -0.49358528962165
C            5.45687293464242       -5.50636154880586       -0.49468281050624
C            6.08776656800063       -6.76745393338206       -1.02763053537434
F            7.38361766162944       -6.57436330881111       -1.40147512722159
F            6.17115919388860       -7.71960019404368       -0.04374253591334
O            5.34006222850999       -7.21969411598897       -2.06894033516517
C            5.65655743071697       -8.37821537981267       -2.74496502968690
C            6.74128073349363       -9.19385986565779       -2.46180706907664
C            6.93756404865541      -10.33495691318456       -3.22269936742520
F            7.98371701294912      -11.12018814890838       -2.94763698345229
C            6.07824443496920      -10.68046791883914       -4.25770565844599
F            6.28214034755795      -11.78721795329039       -4.98225484786074
C            4.99744601668184       -9.84341527559869       -4.52134432827490
F            4.15174174021960      -10.14926918947110       -5.51148611124496
C            4.78129618896628       -8.70187251254185       -3.77748183778216
C            4.15184540773093       -5.58227816919195       -0.02480538505352
C            3.51984658080576       -4.44216128452106        0.42623349347144
C            2.66615398377996       -1.94948364863373        1.96858072118601
F            2.62441431612436       -3.01773372445217        2.78383714738081
C            1.91244791951548       -0.84788341336255        2.31355266685877
C           -0.27761504536110        4.54993294546698        1.01322628702313
F            0.71198655389461        5.14926560135618        0.34405997001493
C           -1.49266138217342        5.19804668731557        1.07921523179705
C           -6.18829037833802        6.16689714971341        0.59928187655680
O           -5.10979792658039        6.13493485323124       -0.21046268002598
C           -5.20608066332253        6.62763919230151       -1.52641069870755
C           -7.42070170045945        6.68018459871591        0.20105987088285
H          -11.01213713592683        7.97451668795753       -0.55350165612143
H           -9.79546562103491        6.92518536361710       -1.31854168792124
H           -9.33871649834742        8.55260552345949       -0.73290144185638
H           -9.23274661994838        6.14847867357582        3.00385141864968
H           -7.04287669222466        5.21063502171044        3.72937400412396
H           -3.19673516690357        2.90006950615061        2.89575956539332
H           -1.03569006224482        1.76161975836178        2.73837778688906
H            2.78564192970745        1.14692825992766       -0.29188696956727
H            6.02715737036821       -2.21724142967268       -0.04038311766022
H            7.15195500897196       -4.24648445666248       -0.85028950460892
H            7.44372970964233       -8.98254386231223       -1.67230157812823
H            3.94142859313426       -8.06312616322978       -3.99303761352330
H            3.63801242410170       -6.53083330795924       -0.02262911257186
H            2.50032244996962       -4.50036537400649        0.77359057567841
H            1.30204391138199       -0.86436977375991        3.20126987009243
H           -1.62610479915778        6.15603986213035        0.60391696485181
H           -4.22011254486685        6.47757280195489       -1.96326004193227
H           -5.44700230958526        7.69506897582791       -1.54161006487398
H           -5.94630249732213        6.07416068382891       -2.11271896804470
H           -7.52735489066205        7.08496946563362       -0.79103172309709
