54
 energy: -75.227397065435 gnorm: 0.000080189944 xtb: 6.7.1 (edcfbbe)
H           -4.33643283439115       -8.86904141435356        0.18444717768759
C           -4.76619590033912       -7.94866278306432        0.55226738887489
C           -4.01048079915850       -6.79761123113391        0.61715935532159
H           -2.97528523422679       -6.82224654744576        0.31074300133549
C           -4.55661019506352       -5.60596369156085        1.09765454834099
C           -3.74767035229047       -4.38368942451274        1.15920850769290
C           -2.85556619688234       -4.06708676334360        0.14001703474508
H           -2.77149021299130       -4.71819591917461       -0.71782044025601
C           -2.09345491001062       -2.91424741927155        0.18072141248679
H           -1.42278431577872       -2.70289244503490       -0.63716494500000
C           -2.20051171925116       -2.04579503916086        1.26304164314266
O           -1.50211739691836       -0.89213347436607        1.41131504623694
C           -0.58396094597184       -0.51708730590271        0.40466528965117
H            0.19021001447794       -1.28921167910607        0.29175539007837
H           -1.10371388673585       -0.39982498335527       -0.55680138724930
C            0.05622568196439        0.80502721340345        0.81285482354482
H           -0.73045745416310        1.55012489386102        0.94121460023418
H            0.55015308266252        0.67284253852163        1.77671959278899
C            1.06184124445567        1.27780992086170       -0.23271052703158
H            1.83806800845180        0.51877922214669       -0.35613338083589
H            0.55584912325324        1.39076865684380       -1.19456468995489
C            1.71294153410101        2.60442087274901        0.15034716894429
H            0.93938676105827        3.36572613673933        0.27154788412387
H            2.22195146547262        2.49464388109519        1.11027919134860
C            2.71520430484056        3.06367513679641       -0.90598196725762
H            3.48881734229564        2.30128324160971       -1.02342207160257
H            2.20426231962317        3.16437748447348       -1.86637311848248
C            3.37161794374066        4.39388613687778       -0.54521959311257
H            2.59993498841816        5.15811109838100       -0.42809223120610
H            3.88668148621878        4.29550433608528        0.41302736515629
C            4.36806766765738        4.84015648338287       -1.61261590383688
H            5.13881654811100        4.07488012428365       -1.72800959291324
H            3.85126721039353        4.93424940079016       -2.57027459814461
C            5.02889845030894        6.17184404540443       -1.26450976958082
H            4.25915907615373        6.93827548221979       -1.14776940024002
H            5.54982316261189        6.07863200277599       -0.30875018630591
C            6.01869032028233        6.60714031028074       -2.34142296174621
H            6.79607231373236        5.84974108764617       -2.46125664020486
H            5.50482810728891        6.71257836766619       -3.29911655898600
C            6.67519596933478        7.93301287376193       -1.98802748786328
H            5.93844865256454        8.73935231820166       -1.90816899560873
H            7.25087846494928        7.86320483762338       -1.05901693255366
F            7.56061197871685        8.30592637083200       -2.97172337439300
C           -3.09000613265450       -2.36013913407602        2.29398851747517
H           -3.16074249953179       -1.68364988667552        3.13106924171310
C           -3.85228470386864       -3.50422575887354        2.23840507323039
H           -4.52050090305741       -3.73627975851352        3.05438372855465
C           -5.88897160158763       -5.60022040129608        1.51434449849577
H           -6.33003546689871       -4.68141229844145        1.87112217342653
C           -6.65632727915801       -6.74377729766997        1.45114672537062
H           -7.68890130845746       -6.73160398695122        1.76842450312726
C           -6.09843228107459       -7.92879157716846        0.96845342966971
C           -6.87880646716148       -9.10378118098261        0.90037662471288
N           -7.51215222552594      -10.05838307387826        0.84423581686078
