41
 energy: -58.505040735005 gnorm: 0.000196118057 xtb: 6.7.1 (edcfbbe)
H           -0.70972111703311       -7.05386364651972       -1.47674899994728
C           -1.13046211442277       -6.23014861568103       -0.91874875285557
C           -0.45291733133782       -5.03376688930287       -0.81430304025213
H            0.51362458253191       -4.92469298557991       -1.28353128178766
C           -0.98725941381413       -3.96923904094036       -0.08750403048920
C           -0.25927374053763       -2.69887186457882        0.02373148765292
C            0.39937969404621       -2.15512279930797       -1.07669786354858
H            0.35803973300599       -2.66395516373760       -2.02884392007931
C            1.07772259319735       -0.95684545146137       -0.96929901385300
H            1.57664492119602       -0.54625711783574       -1.83564635268664
C            1.13123075895074       -0.27268579437744        0.23868799067901
C            1.83022962242890        1.05032088559532        0.34458591321096
H            2.25119701101668        1.16970585722922        1.34506437758434
H            2.64690656571544        1.10148486432666       -0.37816460122764
C            0.84637012012724        2.19536909424794        0.07520384214653
H            0.43210816803581        2.08197662813545       -0.92920186128130
H            0.01701848340035        2.12653605230305        0.78291293216000
C            1.51330252286955        3.56196441853715        0.20318451981547
H            1.93303841413152        3.66655621206931        1.20623582945191
H            2.33863189355868        3.63113680527829       -0.50890489290921
C            0.52838824502036        4.70068388279343       -0.05196922409601
H            0.11616933743517        4.60385704371945       -1.05907499987001
H           -0.30259408989038        4.62394493061219        0.65322801682697
C            1.19260954721293        6.06651475919699        0.09546575132784
H            1.60240933407690        6.17523146100783        1.10170809794663
H            2.01800572033781        6.15910531960369       -0.61326009077536
C            0.20119978285310        7.19295050048733       -0.15459548938132
H           -0.19754488146770        7.16083225004589       -1.17397737098286
H           -0.62270574862477        7.17218653953935        0.56654920539582
F            0.81764968161904        8.41338257525387       -0.01182642260750
C            0.47770741700324       -0.81785506209767        1.33726657135776
H            0.51364992154420       -0.30267418040615        2.28669065128364
C           -0.21093664987947       -2.01013504316402        1.23375143107286
H           -0.69559989640794       -2.42664481954744        2.10484382342216
C           -2.22650550716596       -4.13359542233125        0.53272266198322
H           -2.65897198360335       -3.31065272093753        1.08237549223940
C           -2.91628681384208       -5.32306704712212        0.43151376338905
H           -3.87818513333548       -5.44390306219622        0.90804934952599
C           -2.37004973226562       -6.38193166616805       -0.29561094545740
C           -3.07147562397014       -7.60355422601007       -0.40022089498528
N           -3.64273429371644       -8.59426746067889       -0.48565165940975
