59
 energy: -117.080636065828 gnorm: 0.000282091947 xtb: 6.7.1 (edcfbbe)
C            4.51969877494897       -1.03867206035383       -6.00276722520291
C            3.21923761895597       -0.92507783874250       -6.78915752807254
C            2.32514186398219        0.17539190062257       -6.22330682093493
C            1.00806708312409        0.33471645782281       -6.98955477835692
C            0.33059468118150        1.66811539346869       -6.64676448506138
O           -0.09185129174752        1.68883650612529       -5.29626523951875
C           -0.97401660238471        0.64221941382015       -5.01371373365661
C           -1.33182599927756        0.68009214234013       -3.54760340830136
C           -2.58273398064159        0.26564514092296       -3.11623555161926
C           -2.86761818708104        0.26758518124086       -1.76331595331175
F           -4.07010040580421       -0.15501766350496       -1.36372076149597
C           -1.93152291256391        0.66030406201125       -0.80613072613487
C           -2.27926613878493        0.67366407856308        0.64516449472586
O           -3.33609771108957        1.02313501551078        1.08841360648374
O           -1.22488910866346        0.23350697174941        1.35752184527976
C           -1.16766229969172        0.16311765691908        2.72604974063813
C           -2.16418613126217        0.56937934716396        3.60871740116316
C           -1.96660685445323        0.43630354982189        4.97200469076538
C           -0.79112603434622       -0.08951134455661        5.49662100168971
C           -0.65487647735533       -0.27261993871855        6.95360581445795
C           -0.48098502866894       -1.54596365597795        7.48994685456478
C           -0.38736284328242       -1.70168415482968        8.85704905910323
F           -0.22960158425591       -2.93025299968096        9.35920165630040
C           -0.46470583698580       -0.61481440413898        9.73361206398644
C           -0.36793487457958       -0.78736356296515       11.13462125583699
N           -0.29760675145723       -0.92595156145006       12.26841626839164
C           -0.64861872912901        0.64785089319938        9.16436792980286
F           -0.73692137492893        1.71571841570201        9.96472799381501
C           -0.75443163098631        0.82629900223923        7.79980860653384
C            0.20691105183966       -0.46677579582897        4.59278778870968
N            1.49321443650327       -0.93704535043987        5.05945075381022
O            1.85870266674700       -0.57198687924691        6.15517517115799
O            2.12355253171513       -1.65083125602794        4.31492715598575
C            0.02418189108480       -0.35277089415698        3.22573314360266
C           -0.68354941350200        1.06643883762580       -1.28016439400637
F            0.24380087926610        1.48386348282450       -0.40824247574219
C           -0.37647854105829        1.08297099664301       -2.62620871461008
O           -0.40762613279657       -0.61841005444614       -5.26030861202927
C            0.00396945297921       -0.76076604966709       -6.60766737494776
H            5.15068365593063       -1.82070357157233       -6.41796814273916
H            4.31520264032617       -1.27911296726174       -4.96203874496269
H            5.06962181106866       -0.10070659399595       -6.03567219447227
H            2.69743499774289       -1.88315118227103       -6.75697639880095
H            3.44500738604241       -0.70460143428534       -7.83535147726145
H            2.86971095582489        1.12187594715387       -6.25638857748468
H            2.09528617979603       -0.04106784051696       -5.17832609406754
H            1.19373681703481        0.29696135456316       -8.06663614550028
H           -0.53866508599021        1.82614052084540       -7.30543686688554
H            1.01603285299362        2.51012077868245       -6.75238188433930
H           -1.88716138300897        0.75483323953147       -5.64242555081724
H           -3.33759588986182       -0.06116259378949       -3.81318265293934
H           -3.08874230574709        0.98006056082980        3.23753505333481
H           -2.75197448642972        0.73404790134599        5.64953802253215
H           -0.41779437894816       -2.41782886032695        6.85753792605571
H           -0.88703017399577        1.82067867766934        7.40456214099034
H            0.81092763727569       -0.64670623310509        2.54807694216158
H            0.59230095550573        1.41652073205600       -2.95874374699249
H           -0.87520511349546       -0.70896598030070       -7.26941550320209
H            0.44135287237829       -1.75686143687326       -6.67315261838055
