48
 energy: -95.373008565015 gnorm: 0.000218629063 xtb: 6.7.1 (edcfbbe)
C           -5.59398099818866       -4.17206034140191       -6.06136319641603
O           -5.61844909467802       -4.53238782370611       -4.69760794195466
C           -4.80980282709346       -3.88812113541760       -3.83434630245269
C           -3.91976901019811       -2.86705865675443       -4.17341207054076
C           -3.14010854653692       -2.27810296031558       -3.20066014624427
C           -3.20874920459850       -2.66868449856318       -1.86345699175626
C           -2.37902097271866       -2.03360443812992       -0.81806872530826
O           -2.40960973272318       -2.28899620628240        0.35387524629957
O           -1.57639099029001       -1.07966933359052       -1.36569147601977
C           -0.66394178385316       -0.37334098905419       -0.61375700468873
C            0.03238110589113       -0.90530076163190        0.46441760612774
C            0.95779487405373       -0.11155884420541        1.10880463020834
C            1.22017807286758        1.19415897141029        0.70101105388123
C            2.23216075815935        2.01207910140244        1.39337612867847
O            2.71783161216228        3.03626038210919        0.99842546818554
O            2.54865674003784        1.44719538571078        2.59844517579115
C            3.50882892570843        1.95209213932857        3.43263618100270
C            4.63460531468799        2.65249141151652        3.00411228218341
C            5.56547252789366        3.07308199370250        3.93258156162732
C            5.37786898359026        2.79089100260251        5.27999055631008
N            6.35361463169326        3.23031857988089        6.24121607783208
O            7.31979086674251        3.83651006995734        5.82831817476378
O            6.15291172146533        2.96727688407912        7.40854627316890
C            4.26001707725283        2.08367280665275        5.71282832041165
C            3.32939182890326        1.66641575698202        4.78899365026602
C            0.51858035250408        1.72618906480746       -0.40578675194089
O            0.79285866677392        2.98843686138066       -0.76276305552194
C            0.10556219960580        3.56875653405953       -1.84745285284228
C           -0.42208199280429        0.92506319828585       -1.04547169574303
C           -4.10592134206361       -3.69585702642568       -1.54466195360749
F           -4.22217439043785       -4.12914266926963       -0.28656382920588
C           -4.89150614809958       -4.29813216409997       -2.50141167833399
H           -6.31593799756859       -4.82464204457134       -6.54873987781613
H           -4.60542090014390       -4.33403758003912       -6.50056065833297
H           -5.89349482504133       -3.12978139625493       -6.20468714449171
H           -3.83021657757695       -2.52739608940566       -5.19238110166549
H           -2.45553142310185       -1.49169212155538       -3.47500203696604
H           -0.15096109640604       -1.91230145292850        0.79746175379633
H            1.50451940091983       -0.51288316837015        1.94677159845410
H            4.77540560531207        2.87253661412614        1.95929626610424
H            6.44504256860243        3.61851754357330        3.62655088108620
H            4.14021221442464        1.87641172997006        6.76505580222532
H            2.45237247644075        1.11639003278120        5.09075332381285
H            0.50225491753757        4.57878423762775       -1.93155676369578
H           -0.97186670322923        3.61583525072453       -1.66160237241696
H            0.29476674122914        3.02650362887401       -2.77886982085463
H           -0.98566067321587        1.28591325181777       -1.89012013424125
H           -5.57247295390124       -5.08705073138314       -2.22746242916102
