57
 energy: -74.158973171177 gnorm: 0.000205851007 xtb: 6.7.1 (edcfbbe)
H          -10.43428647404903       -4.46222454691410       -1.32253454917189
O           -9.47807675839525       -4.39688696329905       -1.40492198687169
C           -9.15194832557573       -4.00926301226492       -2.72329631544180
H           -9.51580888416472       -4.76019432875592       -3.44056125579521
H           -9.62272639471316       -3.04511292339349       -2.96609324759769
C           -7.63594899369777       -3.88456409094760       -2.83899670323573
H           -7.19031959785021       -4.82564668508087       -2.51351443467356
H           -7.37650864592612       -3.72327705965074       -3.88716918038002
C           -7.09469219392311       -2.74376820807152       -1.98147364030525
H           -7.53067529660708       -1.80018675406033       -2.31920142695252
H           -7.40901095596111       -2.90788166627438       -0.94985993186831
C           -5.57300259928004       -2.65012910035441       -2.04531902743532
H           -5.13910217095177       -3.59262305943400       -1.70384341415532
H           -5.26144510496117       -2.50001051503272       -3.08215161808819
C           -5.03669928007202       -1.50825186516805       -1.18564963932093
H           -5.45822465064505       -0.56305029164977       -1.53613322444203
H           -5.36468884343259       -1.65217138988882       -0.15361330551407
C           -3.51266597387760       -1.42462877127751       -1.22178197321913
H           -3.09169645201042       -2.37057863949539       -0.87299396799898
H           -3.18179075634805       -1.27732089596122       -2.25263168241156
C           -2.98301271637589       -0.28677798101222       -0.35273333680756
H           -3.39419601776988        0.66085900215522       -0.70877267771039
H           -3.32784847353232       -0.42955994015717        0.67420712588150
C           -1.45818326534334       -0.21143099166299       -0.36428436926587
H           -1.04763218506860       -1.16221208885032       -0.01604646426993
H           -1.11004493770332       -0.05799427674824       -1.38844185179125
C           -0.93815763524912        0.91727619775994        0.52241501899549
H           -1.33688595061470        1.86980185396268        0.16511421024107
H           -1.30328833762686        0.76953429113667        1.54177139061771
C            0.58635481545900        0.98143003964534        0.53943245937723
H            0.98771200274765        0.03010020221022        0.89628345818504
H            0.95950918316474        1.13630437095664       -0.47554871381489
C            1.09583293989205        2.11185894303418        1.44191284913185
H            0.72026513816493        3.06589674098809        1.06645794768063
H            0.70327183856833        1.96404797701600        2.45043811698321
C            2.59487627479608        2.12935556350232        1.47868630487360
C            3.32339930761809        2.92900525345185        0.60697209891176
H            2.80120651526251        3.56402233484832       -0.09463213285127
C            4.70450026207928        2.92898657302589        0.62986191137986
H            5.25244591553463        3.55089616359769       -0.06328191767574
C            5.39929135386238        2.11335574034786        1.51974079173302
C            6.86719720467693        2.11821389290501        1.55649316321632
C            7.57401794218235        3.31818201334307        1.46899992926571
H            7.03214496454078        4.24862811868586        1.38532136298542
C            8.95188976210214        3.33291509122810        1.51599969854245
H            9.49470739493171        4.26502256760629        1.45690046321763
C            9.65427544961804        2.13376641166639        1.64634106751753
C           11.06582639352264        2.14233986785434        1.69543941304814
N           12.21190177729700        2.14925342831717        1.73695375496729
C            8.95837261832957        0.92667025120004        1.72918630483944
H            9.50665479142494        0.00071803030118        1.82398068205940
C            7.58017720003344        0.92591583730845        1.68721582361494
H            7.04460976475804       -0.01061000655498        1.73685286440555
C            4.66966353989393        1.29910867316423        2.38327247156542
H            5.19007168832798        0.67349254131278        3.09403697763852
C            3.28929721118398        1.31307570336447        2.36387552745189
H            2.73907462175954        0.68633237606916        3.05129880074086
