42
 energy: -57.994785216705 gnorm: 0.000168889902 xtb: 6.7.1 (edcfbbe)
H            1.96697969163650        0.48654924917339       -1.88061223150951
C            2.01880635195958       -0.10351580226938       -0.97282030282917
N            2.66078814206471       -1.25030810763425       -1.06988759659083
C            2.74739668745087       -2.00202458106688        0.02590573877409
C            3.45843197036277       -3.27820573694051       -0.07484832182361
C            4.02746365246876       -3.67029257331929       -1.28700271445893
H            3.93151562122663       -3.01727302284721       -2.13993931583833
C            4.69847428298456       -4.87028540323694       -1.38445881083049
H            5.14220992341657       -5.18049882313486       -2.31912865587175
C            4.80774415379629       -5.69607584159423       -0.26314482988991
C            5.49511300525395       -6.92727826296903       -0.35858852249232
N            6.05346851853865       -7.92593024276439       -0.43517262915162
C            4.23932048485175       -5.30867943034894        0.95260285911165
H            4.32992927780550       -5.95567620030104        1.81279764521384
C            3.57015995957447       -4.10712167935166        1.04205484170402
H            3.12417788838931       -3.78808235489325        1.97073292238674
N            2.23342270275539       -1.67072179486012        1.20930951716414
C            1.59473706597876       -0.52184947891980        1.29534057482095
H            1.19112896476317       -0.27809495255620        2.27135890994498
C            1.44178492304803        0.34303241681241        0.21362856286307
C            0.67240392735342        1.61950978571739        0.31013174048007
H            0.80097429701453        2.05320215371386        1.30439062967741
H            1.04233522706523        2.33280296788714       -0.42944804976921
C           -0.81982463805411        1.36118726603044        0.06344610190610
H           -0.94991664449146        0.93393040937850       -0.93378166660570
H           -1.18026705468604        0.62616881272621        0.78724015887392
C           -1.64426216943526        2.63961104031966        0.18331980629511
H           -1.50261289039612        3.06917222192788        1.17794895030519
H           -1.28793765392280        3.37094706614978       -0.54595309701274
C           -3.13103823115552        2.37949462301151       -0.04626419123368
H           -3.27384284908343        1.95562887422605       -1.04312158679191
H           -3.48385606590274        1.64171115181167        0.67837645960177
C           -3.96382242089582        3.65216734555950        0.08504803675052
H           -3.82370183636532        4.07411097994897        1.08316946335677
H           -3.61107543632280        4.39155888326932       -0.63793549873848
C           -5.45019428053816        3.39108688752635       -0.14640810739367
H           -5.59102063948730        2.97331577778286       -1.14592655819590
H           -5.80174777115446        2.64884965459036        0.57397211860202
C           -6.27827493764911        4.66248758268073       -0.00782322113253
H           -6.16815989025896        5.08267557386466        0.98960165380047
H           -5.95529719698445        5.40892125401753       -0.73034870611096
H           -7.33190411298191        4.45378231088316       -0.17777207736561
