50
 energy: -60.538207687955 gnorm: 0.000130825573 xtb: 6.7.1 (edcfbbe)
H            2.06150792475228        7.09925299748172        0.05708836000199
C            1.46990024114111        6.19550986869063        0.06190318129164
C            0.09406092072778        6.27008222021248       -0.15219253628779
C           -0.52302031619088        7.52128034563426       -0.37436631121238
N           -1.02397616194278        8.53716996494699       -0.55395927799233
C           -0.67082784710612        5.10316797015642       -0.14614285289008
H           -1.73657112735846        5.16353117469525       -0.31220566430020
C           -0.06147040376735        3.88502017277988        0.07113409295411
H           -0.66689775240977        2.99117253928159        0.07302215430269
C            1.31161200275603        3.79568365297048        0.28647124605882
C            1.97815355874763        2.46759815242283        0.52039994109340
H            3.04918671122851        2.64111579703937        0.67716791442500
C            1.82253838416188        1.54596909848628       -0.69466825600185
H            0.76480040460835        1.38047558411275       -0.90057413344968
H            2.25483636557510        2.02971869279413       -1.57409971001479
C            2.52206267624378        0.21186068234226       -0.45163195054700
H            2.39614801403786       -0.43008584509554       -1.32448011657313
H            3.59336025855820        0.39334114669054       -0.33194827176735
C            2.00895538621133       -0.50051418053380        0.80460922675284
H            2.65799115948623       -1.36530092519119        0.98984671980432
C            0.57819744566170       -1.03323389468829        0.65939921705073
H            0.22041826433197       -1.33164861090504        1.64836480434023
H           -0.08574605560877       -0.24859351168077        0.29639722173522
C            0.47307811991732       -2.23749951849776       -0.27418198515274
H            0.79140640572377       -1.95842366609132       -1.28046674453819
H            1.14133902874865       -3.02777038414574        0.07653710797257
C           -0.95449595161571       -2.77657337016609       -0.33807702414716
H           -1.27625265514639       -3.04855894102581        0.66865266950993
H           -1.62115331398424       -1.98963084217167       -0.69974806157119
C           -1.06409191837080       -3.98897420877804       -1.26010610839498
H           -0.64947664896092       -3.72406099181445       -2.23632659531323
H           -0.45933424222348       -4.80488933683422       -0.85712211267927
C           -2.50050418593267       -4.47422204076066       -1.45691618118523
H           -3.11591038656103       -3.64403397487848       -1.81214895206612
H           -2.50496149581067       -5.24245827693822       -2.23443490554931
C           -3.12575201010194       -5.05920037244155       -0.19225854242151
H           -2.47804382523415       -5.84820285336250        0.19708076592691
H           -3.20556015272851       -4.28502993084550        0.57255493603884
C           -4.51146587616605       -5.63131123051568       -0.46593063570430
H           -5.17637508807554       -4.85599964419447       -0.84078533060432
H           -4.45826110710506       -6.42358486438448       -1.20970518350473
H           -4.94332659298272       -6.04309156530177        0.44337860125590
C            2.14153724420773        0.44693729166892        2.00272532489881
H            1.74155934316504       -0.03257998411947        2.89870424263238
H            3.20205614385982        0.64406312498332        2.17979299077665
C            1.42574187876108        1.77398103881495        1.77070202954029
H            1.56692182548784        2.42385142785971        2.63786358190474
H            0.35522931401833        1.60087632692241        1.65979211292611
C            2.06204887221759        4.96740719397691        0.27781414261111
H            3.12882722108538        4.91643650038213        0.44307485806852
