57
 energy: -100.647688144668 gnorm: 0.000176596542 xtb: 6.7.1 (edcfbbe)
C           -0.00064749814505        4.28365782862255        0.35305922453279
C           -0.07393569921193        2.97393019593642       -0.42289577169942
C            0.61473216923560        3.04652616273035       -1.78663594059396
C            2.13725183604492        3.08130776368118       -1.68015478070024
O            2.54916443368900        1.86520962289111       -1.08629413099530
C            3.85255426496660        1.62101312575380       -0.86497026425316
C            4.86404878077252        2.51079888060644       -1.22513340090249
C            6.20095606597522        2.21393791753777       -0.98848420117448
O            7.23348640106949        3.02598426263438       -1.30900304339694
C            6.97338383889324        4.26346428471413       -1.92900831719625
C            6.54372981100714        1.00162222210477       -0.37947342793108
C            5.55358494110418        0.12524691634012       -0.02041570859846
C            4.20099041004805        0.40368925662190       -0.24414586052572
C            3.24586628295277       -0.61885737902861        0.20952840754880
O            3.57626027649815       -1.66246004332482        0.71925713991191
O            1.95696608216151       -0.27124403251384       -0.02013932700926
C            0.88162923500402       -1.01674335456241        0.38173787809442
C           -0.29059223271128       -0.80013132369938       -0.34610396027801
C           -1.45572446817215       -1.44479699154081        0.00085827216055
C           -1.46763068117604       -2.32402539233865        1.08479371008914
C           -2.68303652287447       -3.04436688096472        1.50490722515736
O           -2.73194669498575       -3.85480516921645        2.39274468535307
O           -3.76440021845311       -2.65071359253242        0.77635728207940
C           -5.01277178125485       -3.19324543938683        0.93227622121738
C           -6.07515294469573       -2.35137580321085        0.59356220419001
C           -7.37077809661147       -2.80922323642234        0.66916709763115
C           -7.60640337259919       -4.11607187918573        1.08511407859065
N           -8.95982076821257       -4.59898731458028        1.16696917866291
O           -9.85026097823348       -3.82970804940017        0.87185331132153
O           -9.12923341712144       -5.74545069080618        1.52343210422746
C           -6.55423532224522       -4.96019641231682        1.41721867955926
C           -5.25373495414725       -4.50340450652234        1.33923601754493
C           -0.29340109277575       -2.53788207896328        1.80541597215370
C            0.87680207456072       -1.88945494218019        1.46632780233044
H           -0.55379545770775        4.19755609888426        1.28507458142972
H           -0.43206469082698        5.09736113026260       -0.22690802377535
H            1.02670424214862        4.54181952233503        0.59710857761804
H           -1.12347690209766        2.71508429499636       -0.57765505240207
H            0.38610137699963        2.17349775844548        0.15766185766524
H            0.28420298496712        3.93571317421966       -2.32680849417438
H            0.34260929135568        2.16871378787120       -2.37482689482785
H            2.45981249453607        3.93292089788079       -1.06798018001201
H            2.57441202829379        3.18190521589380       -2.68348475073618
H            4.60116548910736        3.44233977162573       -1.69712856083264
H            7.94754658431109        4.72351923139825       -2.08531155225358
H            6.36640880105086        4.91329316903275       -1.29080095425285
H            6.47755809925934        4.13220822422814       -2.89589438062843
H            7.58443688004239        0.78570480223372       -0.20525673215549
H            5.79374373719271       -0.81459985161435        0.45231058669733
H           -0.25613635356226       -0.11633293070905       -1.17895418784061
H           -2.35812922732248       -1.27623496287499       -0.56508752701830
H           -5.85832765440603       -1.34420358411734        0.27513623881386
H           -8.20702911078204       -2.17622100755747        0.41520398800973
H           -6.76817514830627       -5.97026593443027        1.73143689354275
H           -4.43545744234063       -5.15373258220324        1.59921256930854
H           -0.31783760633981       -3.21940516060897        2.64198745462526
H            1.77799742408437       -2.06388499267274        2.03002618606312
