50
 energy: -73.104350012279 gnorm: 0.000182636834 xtb: 6.7.1 (edcfbbe)
H            0.68358949635299        2.32227081033933        2.87843325889498
C            1.00796831770404        3.00963324418188        2.11198834136917
C            1.53421089630837        4.23493714293519        2.47088982597121
H            1.62350420503576        4.48958174592299        3.51727364371704
C            1.94473732389684        5.14814807073096        1.50750556586021
C            2.55445619935391        6.45898119244049        1.90728424241543
H            2.38671739902376        7.20281808449469        1.12533632656785
H            2.08919297217185        6.81964369225130        2.82741818546364
C            4.06297894424069        6.30603547390625        2.13833607060213
H            4.23103172122818        5.55027288090425        2.90858596126780
H            4.53054870399472        5.94890182904761        1.21804818990334
C            4.70235949582057        7.62167745122454        2.56232482306428
H            4.55986465021945        8.38101338339639        1.79615441467192
H            4.25730323458688        7.98231700808059        3.48741058488184
H            5.77017177497973        7.49267003866929        2.72307974441605
C            1.81804329968039        4.79874761815887        0.16858795730686
H            2.13844539166634        5.49295688947463       -0.59544985804188
C            1.28494015183821        3.57897331448660       -0.19870553416497
H            1.20443886795267        3.31930882706538       -1.24433801857082
C            0.87340801746981        2.66613471194231        0.76938983911776
C            0.28698057607496        1.37869593532825        0.36981570336529
C           -0.65437116120306        1.30490410953748       -0.65602315327029
H           -0.95417198658308        2.21642735879310       -1.15002202533779
C           -1.22554043685207        0.10604937986076       -1.02611902937550
H           -1.96973639883150        0.08611433129138       -1.80749443514277
C           -0.88814486474392       -1.08959422487762       -0.39298149055315
C           -1.51901605610623       -2.35855955783734       -0.78349100428374
C           -1.70457713245345       -2.66404533299814       -2.12987699844090
H           -1.34928549605440       -1.97887162597819       -2.88590860000096
C           -2.31297615473394       -3.84571825819918       -2.50390117284447
H           -2.44390328498246       -4.07003102411471       -3.55316483856152
C           -2.76234077627179       -4.75059796439232       -1.54961890391985
C           -3.38523358801349       -6.05217957954160       -1.95884606541824
H           -4.11038854903524       -6.37080892076157       -1.20698632345376
H           -3.90865636116979       -5.93331862905047       -2.91001655402029
C           -2.31217177815065       -7.13768330489364       -2.10964197514861
H           -1.58547022062926       -6.81865108612000       -2.86012123945299
H           -1.78094054407697       -7.24737427169741       -1.16172207608541
C           -2.91713974785434       -8.47474955700798       -2.51665027785412
H           -3.63042336389077       -8.81523230829049       -1.76881625182200
H           -3.43643402082081       -8.38599745787466       -3.46869730899431
H           -2.14062422628768       -9.22938331218055       -2.61838714042302
C           -2.57605867932599       -4.44321784147986       -0.20771082047124
H           -2.92037083708922       -5.13359714405235        0.54899267993205
C           -1.96269403928345       -3.26632676795551        0.17454284686694
H           -1.84213560269998       -3.04372564038118        1.22378963464029
C            0.06433751881313       -1.02216227150414        0.62135639835270
F            0.47255948697020       -2.14355540876609        1.24796569681960
C            0.63808835992990        0.18438977142465        0.99464216758119
F            1.57293830183129        0.17380719406405        1.96557899260707
