48
 energy: -94.541718530087 gnorm: 0.000125094342 xtb: 6.7.1 (edcfbbe)
C            2.13364247364342       -1.26228725181393       -6.29594171560785
O            1.55153187974123       -1.21542814576218       -5.01521343000065
C            0.64193082151191       -2.13541425123773       -4.65789091336463
C            0.21797482301743       -3.16327989130592       -5.49822626972741
C           -0.72482509550416       -4.08436775483334       -5.06883409754120
S           -1.31645445667332       -5.41178291081239       -6.05587952373718
C           -0.41769859540530       -5.25066344647009       -7.62571596709296
C           -1.26133543934909       -3.98925062028744       -3.78332396610883
C           -0.84982837518907       -2.97970712474114       -2.94953207428975
C            0.09896820530309       -2.03741356885907       -3.35638029156244
C            0.53952358316379       -0.96653351030531       -2.45179526961016
O            1.36710367989767       -0.12589923619946       -2.68138440648685
O           -0.15305939427036       -1.02671989513597       -1.27048704791966
C            0.11937213872646       -0.21080247492238       -0.20528350569224
C            1.37722118019459        0.30913253862654        0.08767808232675
C            1.54468192971968        1.07026825854164        1.22590942292511
C            0.47599404515205        1.31883554030511        2.08728093732518
C            0.73257980992949        2.12761519908475        3.29116036061566
O            1.80219708423276        2.58387505580898        3.59751627071266
O           -0.41113071352094        2.30603992774796        4.01551940866877
C           -0.48261208440567        2.96825516887913        5.20478170699701
C           -1.77995538212828        3.28999467858406        5.62159330503109
C           -1.98073706360363        3.92901541159021        6.82039574527335
C           -0.90292402476411        4.25892088721891        7.64210725171176
N           -1.17156279222081        4.91856278545360        8.89862547253410
O           -2.28768956865524        5.37043888989414        9.04652223937096
O           -0.28858186189338        4.97206927096000        9.72045586210914
C            0.38530709601900        3.93429699525991        7.21780063637920
F            1.45205972764885        4.24400620352982        7.95018241193998
C            0.60325260462999        3.29528271838007        6.00820960027892
C           -0.78061015544477        0.78874064502708        1.78992100300312
C           -0.95474334505251        0.03195729873856        0.65343932957995
H            2.82706012218139       -0.42384581769266       -6.32640920448226
H            1.38490660274732       -1.13960526370933       -7.08530147694398
H            2.68698793142985       -2.19367882244989       -6.45447758486086
H            0.63032293921983       -3.23787231201115       -6.48964321150569
H           -0.76842396616536       -6.07026312545804       -8.24509123432565
H            0.65024394871970       -5.35082452936209       -7.45597291937080
H           -0.66005609899141       -4.30396286276669       -8.09941623802152
H           -1.99285943022380       -4.71341449306724       -3.46214708819348
H           -1.26082709825233       -2.90610666212000       -1.95591161402000
H            2.20987381692498        0.12533795106145       -0.57049668998908
H            2.51174727227828        1.48229029107775        1.47046509751822
H           -2.60985064648550        3.02704548716233        4.98637179200677
H           -2.97327865776170        4.18854269285059        7.15602829021465
H            1.61533770249824        3.07417541768735        5.71130664502953
H           -1.61308793657289        0.97213629779497        2.45018292457077
H           -1.91767923601911       -0.38773163988509        0.40731194431775
