45
 energy: -61.501427100174 gnorm: 0.000195040224 xtb: 6.7.1 (edcfbbe)
H           -8.39874916821606        3.41232634871714       -3.20242312058582
O           -7.44374021127409        3.29360504888736       -3.20142092701375
C           -7.08795289613285        2.39507968135720       -2.17238166556330
H           -7.40976519476503        2.78386452798668       -1.19457428498703
H           -7.57334527625791        1.42004621087805       -2.32867646899436
C           -5.57275126657909        2.22446480240226       -2.18503754572662
H           -5.27603744333136        1.85773697120143       -3.16878777235462
H           -5.11588765522578        3.20557859312744       -2.04667988873224
C           -5.09520328787633        1.26530733158821       -1.09980292022735
H           -5.41371851843566        1.63681037349671       -0.12271650967441
H           -5.56066050275063        0.28791446664844       -1.24831961846676
C           -3.57643360383158        1.10953178996861       -1.10941502121275
H           -3.25826027066743        0.72994717255091       -2.08280106931626
H           -3.11378918869657        2.08920120611867       -0.97078475843420
C           -3.09087722370639        0.16364526962696       -0.01366072126851
H           -3.42302771091916        0.53768165258813        0.95786149976395
H           -3.54169025908107       -0.82094274528838       -0.15914659671354
C           -1.57078116011122        0.02937745321370       -0.00864318934779
H           -1.23360693640153       -0.35748064377932       -0.97296074920907
H           -1.11844296206657        1.01446698133231        0.12702642717106
C           -1.08241945327867       -0.90376586520874        1.10621626828744
H           -1.42983941811691       -0.52100306686905        2.06828053709977
H           -1.51344811442927       -1.89590606524173        0.95757846191439
C            0.41491387091081       -0.98772633985275        1.10108826278184
C            1.17854996100975       -0.06032617379973        1.79983354420366
H            0.68400032798795        0.70835384610571        2.37660935015361
C            2.55802570293209       -0.10987898222364        1.77051793096439
H            3.13214921908130        0.63014320540125        2.30907046668109
C            3.21767797691830       -1.08713220483908        1.02814296896639
C            4.68451713095675       -1.14218942571948        0.99517911996899
C            5.42963269421561       -0.91943621022827        2.15401155882426
H            4.91858414344575       -0.72334731883275        3.08496393647637
C            6.80715404559023       -0.97187918103220        2.13117218274745
H            7.37925740523380       -0.80467348160263        3.03214983291538
C            7.47121928227212       -1.24687241762024        0.93463171456906
C            8.88231869265567       -1.30003043737748        0.90479790878602
N           10.02816590413325       -1.34332708052982        0.88070660869016
C            6.73712536087542       -1.46925785874527       -0.23145737903233
H            7.25542591952198       -1.67742648184608       -1.15613019379465
C            5.35976122734012       -1.41826785143658       -0.19450067651800
H            4.79560790151616       -1.57413753470967       -1.10210500820334
C            2.45275952357719       -2.01197100696486        0.32087825917503
H            2.94411086881200       -2.79141697954409       -0.24330415360306
C            1.07311264651716       -1.96221481687470        0.36117751101643
H            0.49649791666188       -2.69447276302849       -0.18601411218683
