56
 energy: -110.556379282331 gnorm: 0.000165583017 xtb: 6.7.1 (edcfbbe)
C            5.21251607278050       -1.43728491399260       -5.80505517534934
C            3.86383177166948       -1.13659563170208       -6.44779325309170
C            3.10350967669476       -0.06865807325177       -5.66543142543884
C            1.74816907082155        0.28211258625985       -6.28744335752895
C            1.20213628857671        1.59615324035110       -5.71276684347515
O            0.87857479988138        1.45592147621847       -4.34249915083268
C           -0.05937404694096        0.43928339381901       -4.13456753374825
C           -0.31714694264578        0.30496236184369       -2.65357959785016
C           -1.58653149468710        0.01288038589503       -2.17917596272132
C           -1.77964601155179       -0.15270183429381       -0.81989977742254
F           -3.01520994196208       -0.40552246581867       -0.37775691958176
C           -0.74108530684178       -0.02271209941449        0.10127533248664
C           -0.97977749646338       -0.23901852486298        1.56090035521929
O           -1.67132561741608       -1.10624278160223        2.01512094922360
O           -0.28990203852448        0.66573096834450        2.27283105274512
C           -0.28874878225880        0.64848563515303        3.65631343966069
C            0.91211174379780        0.98166450337135        4.27377372206065
C            0.97776851375010        1.01403287629394        5.65194073105071
C           -0.15082382914512        0.71504829691963        6.39462757860092
F           -0.04385756585920        0.72569333059268        7.73787791955336
C           -1.36580571676410        0.38367033371846        5.79829900076215
C           -2.56385892986897        0.05249633661945        6.58599816368333
C           -2.90157958716362        0.78388607010978        7.72109190438542
C           -4.03554137560531        0.45750061905095        8.43993880030918
F           -4.35619093765899        1.17658545696833        9.52388656587186
C           -4.85359270204759       -0.59930381084929        8.05564635939173
F           -5.94883628147947       -0.91080534302814        8.75875325451730
C           -4.50394870242986       -1.32430233323235        6.92069735132438
F           -5.27423849491497       -2.34959647747588        6.53409897977027
C           -3.37759988741432       -1.00583557290818        6.18762586369187
C           -1.41714325470862        0.35986073688386        4.40585595663889
C            0.51971985508571        0.27501226477993       -0.41482870973897
F            1.56257560755910        0.38182758807901        0.41972989153366
C            0.74332986455664        0.43183908305592       -1.76868012168702
O            0.39627490450542       -0.80792628936866       -4.58877436939926
C            0.69532159518924       -0.78875941175114       -5.97224930693148
H            5.74551998933882       -2.19679714057840       -6.37181768361223
H            5.07698236419013       -1.79951308787652       -4.78861179531781
H            5.82765436130836       -0.54078603336734       -5.76988512771590
H            3.27647964600992       -2.05539284048625       -6.49198860753485
H            4.01874312487326       -0.79150184911325       -7.47302297034514
H            3.71545280113040        0.83520861714720       -5.61903900895816
H            2.93777394078797       -0.41269729051831       -4.64283366731967
H            1.84879221404581        0.38372797188479       -7.37177780365551
H            0.30332419866113        1.90281626499468       -6.27200632219211
H            1.94156960248166        2.39689126805153       -5.75919453532795
H           -0.99994599377030        0.69596428878282       -4.67389780142902
H           -2.42629066369838       -0.09296684278310       -2.84701706203466
H            1.77257022226419        1.20482091605415        3.66429155555648
H            1.89509532335693        1.25972740484287        6.16248958461090
H           -2.30124024080118        1.61422848593106        8.05532614539347
H           -3.13459017501432       -1.60026916689291        5.32127247349811
H           -2.34863711084958        0.12619727707928        3.91720188485400
H            1.73068084243209        0.66164543146600       -2.13277414627737
H           -0.22395508611854       -0.58847915256918       -6.54546191729364
H            1.04997581880765       -1.79219650285822       -6.20704486259095
