39
 energy: -91.860249825834 gnorm: 0.000223944076 xtb: 6.7.1 (edcfbbe)
N           -9.05137737122313        1.71587988551677       -3.74854063062276
C           -8.02561188362821        1.55569172131862       -3.26686191135222
C           -6.75720317346969        1.35681271808802       -2.67282113956797
C           -6.16149760583122        2.33483526277589       -1.87203363436518
F           -6.80785215997979        3.48623113913829       -1.67274089261824
C           -4.92344558303824        2.16350549094623       -1.28240483508610
C           -4.24496444676300        0.96716408496003       -1.48710208589168
O           -3.00167888339761        0.68214787321309       -0.99202139334432
C           -2.48903879493325        1.26685032926637        0.12854636329487
O           -3.07913997834133        2.06000821059709        0.80420854807370
C           -1.12143897743958        0.75730524509835        0.38074997853861
C           -0.37834980812912        0.12392093289194       -0.61506222782908
C            0.90174086548939       -0.33743858813586       -0.38201303550505
C            1.46813220038544       -0.16760620553564        0.87748220258266
O            2.71136525176337       -0.62254640802840        1.24344820133444
C            3.72391875033174       -0.81435895881822        0.37549209837692
O            3.68301636705665       -0.61892051654541       -0.80518285981515
C            4.92961344836997       -1.29494908015969        1.11328943737000
C            5.76977750167282       -2.25549061676787        0.54806819819458
F            5.44799170200415       -2.78790501257706       -0.63414774819691
C            6.90906457603665       -2.70629179210576        1.19022475939784
C            7.23870431306695       -2.18188161894592        2.42788387400161
C            6.43543443616220       -1.22240471384826        3.02007898582986
C            5.29582287913431       -0.79568550968057        2.36324371578064
F            4.54310822679910        0.14934426440683        2.94184375587351
C            0.74975351845488        0.45553230273599        1.89336521106936
C           -0.52666641361187        0.91305780455282        1.63720714050251
F           -1.19540464492869        1.49199854907800        2.63531638211579
C           -4.80412148740602       -0.03179343361928       -2.28457703505583
C           -6.03812082579959        0.17182198321104       -2.86133547947549
F           -6.56238794806383       -0.79426863938947       -3.62211610790635
H           -4.51927870167026        2.95149969783532       -0.66904291862842
H           -0.81680369072542       -0.00243359004720       -1.59182055813627
H            1.45505260463688       -0.81669473592159       -1.17221383665969
H            7.51957700617487       -3.45606917302829        0.71373948748320
H            8.12760700288224       -2.52249453443022        2.93466113248434
H            6.67790157478034       -0.79894552247720        3.98136898089821
H            1.19114877761086        0.58055229566986        2.86888596562832
H           -4.27436862443136       -0.95601114123675       -2.44707608877218
