48
 energy: -99.595126106035 gnorm: 0.000543215405 xtb: 6.7.1 (edcfbbe)
C           -6.65776715259691       -6.25664063466213       -0.76901242945895
O           -5.73520699088176       -6.15998524622177       -1.83247522183082
C           -4.75309124962617       -5.24298198477583       -1.76614585641851
C           -3.87181998103204       -5.19768754802212       -2.85560581535293
C           -2.84104397753069       -4.29394854651862       -2.87579269719703
C           -2.62989670692262       -3.39462861956859       -1.82263180965421
C           -1.48977392821863       -2.45924664004534       -1.93956172100851
O           -0.76219670284752       -2.42687092766636       -2.90212578391703
O           -1.37913706185216       -1.67857484874181       -0.85121145928508
C           -0.43138085017918       -0.70770176394093       -0.64733654538973
C           -0.46210864289170       -0.13621578243690        0.62715221778727
C            0.43519969797151        0.85356924309466        0.94360675382787
C            1.38019685846274        1.30283591391518        0.01709609274386
C            2.34363269510334        2.35458529779072        0.36509231287418
O            3.22569237199835        2.78459985663575       -0.32477334933927
O            2.09118597582952        2.83302916837990        1.63281830101258
C            2.86717894182446        3.76212191222654        2.25299956036934
C            2.24129393653591        4.47502322367718        3.28268558683458
C            2.94642675797498        5.40624843027517        4.00454892258437
C            4.28871840247835        5.66132014484678        3.72244050311487
N            4.97752820116651        6.66174381892536        4.50103661984243
O            4.42298899254476        7.04098704901600        5.51202825456924
O            6.04574859131644        7.06460767309464        4.10654784371463
C            4.90574082918964        4.93930922027541        2.70058337021522
F            6.19464250498786        5.11129888915122        2.41556092072876
C            4.20940508425329        3.99072347382359        1.97098800065665
C            1.40652395070406        0.72273792755676       -1.27249869258846
O            2.32150378209348        1.17726665220431       -2.13464434725055
C            2.39161179038376        0.63169101777805       -3.43458212682596
C            0.48966193183142       -0.28219412174930       -1.58923760784443
C           -3.51524443493649       -3.45602516771718       -0.74881068951538
F           -3.39206205536268       -2.63307756715108        0.30495924386693
C           -4.56281812327709       -4.35789885605357       -0.70807553756461
H           -7.34393351777630       -7.05399152259367       -1.04825429272503
H           -7.21719133036487       -5.32564081015803       -0.64017680383743
H           -6.15980865587429       -6.51889131500996        0.16883038764878
H           -4.02866661248233       -5.88785894198273       -3.66815572891020
H           -2.15888496532353       -4.25173667653775       -3.71077582897792
H           -1.19429441336475       -0.48832102241657        1.33468385566752
H            0.41905094078859        1.29596419794228        1.92608712549705
H            1.20276509036434        4.27848181647542        3.49320733863666
H            2.48033476395027        5.96589063920398        4.80122071222680
H            4.72308666593843        3.45605226366627        1.18917372121246
H            3.20870895169715        1.16038466067570       -3.92197546236923
H            1.46533534853759        0.80053104742890       -3.99130394056775
H            2.61354982834366       -0.43895240027560       -3.40945393288519
H            0.49598874748234       -0.73656810383120       -2.56435539123762
H           -5.20738428039375       -4.34531448999592        0.15564542632811
