47
 energy: -101.068756150996 gnorm: 0.000225925656 xtb: 6.7.1 (edcfbbe)
C           -6.84524019353958       -3.40243589801429        3.56732737497594
C           -7.24385514177533       -2.90887350752969        2.18234852768095
C           -7.34449749453009       -1.37913367143178        2.13238081065577
C           -6.01543124620639       -0.72793921402193        2.41483384039152
O           -5.77698089453414        0.00305064828880        3.33250117823650
O           -5.12341314075366       -1.09509221730898        1.45891009249714
C           -3.81172304043440       -0.71315970880228        1.40811227261531
C           -3.09463714451058       -1.25751962000170        0.34183135145421
C           -1.76461169575195       -0.93620266693881        0.18030788313896
F           -1.10217705878880       -1.49290525264818       -0.84042981686558
C           -1.09216110655402       -0.08460742171887        1.05824667501780
C            0.35739814701304        0.24608132918567        0.91421463592442
O            1.12479331554125        0.34513478016504        1.82875459235671
O            0.65835711683159        0.39546873067147       -0.38683267830507
C            1.92883266860733        0.70034804858978       -0.82873348317236
C            2.83236936936878        1.48703098247615       -0.12678632163460
C            4.06196831233938        1.77220367500732       -0.68993419528497
C            4.42934545414364        1.29169621486370       -1.94485956219027
C            5.74372097830221        1.61158900673888       -2.52272529274493
C            6.25463418525321        2.90222313089841       -2.40741778308931
C            7.49046699493060        3.20859322583597       -2.94215435049506
F            7.96407838365812        4.45725582207367       -2.82884658327224
C            8.25100357227301        2.24476126067797       -3.59578415097037
F            9.44966742715445        2.54736582730316       -4.10745547785293
C            7.73164357954144        0.95888903170942       -3.70296226933892
F            8.44804868326801        0.01131043525662       -4.32100207088855
C            6.49410576524999        0.63934282503292       -3.17814528602906
C            3.49340459652948        0.50815343835391       -2.62087315729430
F            3.77662284455885        0.03943771520246       -3.85060177374270
C            2.25684346144036        0.21104412002076       -2.08797481242451
C           -1.84089823824941        0.43058056567189        2.11579254337958
F           -1.26082326799595        1.27353165726877        2.97105946497910
C           -3.18102424411984        0.14159627445606        2.30376157201228
H           -6.80081604695206       -4.48855433090132        3.58365745106239
H           -7.56796959162586       -3.07647601350678        4.31155124990644
H           -5.86887503720568       -3.01510183810488        3.85043310278599
H           -8.21423485703894       -3.32789568395813        1.91074964547877
H           -6.51313769265269       -3.24447186052349        1.44479837466754
H           -8.05911766841123       -1.02058303751421        2.87356635464573
H           -7.67056768489836       -1.06873250111992        1.13799467230649
H           -3.58053860280059       -1.92515301239253       -0.35051202716129
H            2.58501321751631        1.86716579658846        0.85026741778267
H            4.76732310671430        2.36923216085390       -0.13355197383165
H            5.69082889404014        3.68299835622565       -1.92293769919470
H            6.13600417834178       -0.37194244040969       -3.28137993681633
H            1.55160714791593       -0.39098011128440       -2.63747329640850
H           -3.70532031120183        0.58167494871404        3.13598291506108
