48
 energy: -90.314010929089 gnorm: 0.000071292640 xtb: 6.7.1 (edcfbbe)
C           -5.23224873650505        6.33076439164075       -3.48875443331287
O           -4.29435565851639        6.71586687613024       -2.51097562455468
C           -3.45126075754735        5.79225697541541       -1.99848475959983
C           -2.55909226787448        6.25328387900075       -1.02410104752578
C           -1.67564722311589        5.37645821915573       -0.45145311621845
C           -1.63343319775371        4.02546314344632       -0.81278327873481
C           -0.64809102587531        3.19556434997509       -0.10175354241586
O            0.06982279805787        3.61670463681504        0.77316130329397
O           -0.62261514660634        1.91852088193300       -0.55023712643330
C            0.11814327740724        0.91409276800171        0.00611293661521
C            0.65353399302834        0.92101576221454        1.29155899429443
C            1.32969822524241       -0.19141419151716        1.74781660892691
C            1.48027106918335       -1.32421861643516        0.94471961467020
C            2.19227678130108       -2.46652992255000        1.51564320565723
O            2.72666550512466       -2.50837593543135        2.58906545762528
S            2.17697058820047       -3.93178667285468        0.45129116218362
C            3.01354868228817       -5.10193922022260        1.48460153299323
C            2.41117846293641       -6.33878885908626        1.69173306534941
C            3.03344158686243       -7.27622118575487        2.48831766968044
C            4.25567672299045       -6.96377724335331        3.07467811538006
N            4.90511485516312       -7.93837421612856        3.91354805741231
O            4.34210416031938       -8.99952796104608        4.08268098501784
O            5.97624479727604       -7.64112535264894        4.39796789168057
C            4.86429795619738       -5.73257435000406        2.86008104892502
C            4.24496991942205       -4.79928627870651        2.05345101339846
C            0.94441277142575       -1.32043490380841       -0.34416404908211
C            0.27235620140161       -0.21326005791892       -0.80619336841545
C           -2.52835273908743        3.55926218857304       -1.79670657987783
O           -2.47694629375560        2.25321691220499       -2.13302833140447
C           -3.36102316437216        1.74574072347743       -3.10414121357566
C           -3.42646948380514        4.45419903850055       -2.37505432475300
H           -5.78932705287415        7.23384317372088       -3.73198527905851
H           -5.92356138582291        5.57339799399463       -3.10609965220886
H           -4.74076369834931        5.95661210972736       -4.39226067191673
H           -2.59013895593489        7.29283249417973       -0.74406671327925
H           -0.98084382708098        5.70834141567413        0.30450393381191
H            0.54644010769631        1.78687982235957        1.92330649273243
H            1.74773474877721       -0.20271186343531        2.74307395350508
H            1.45966499045893       -6.55164210561279        1.23012282504057
H            2.58923421195724       -8.24231820434384        2.67251840261063
H            5.81697488720862       -5.52590114434687        3.32305277370835
H            4.71168940311602       -3.84489334067756        1.87209328270538
H            1.05839412918560       -2.18558085027811       -0.97967525861739
H           -0.15351543780065       -0.18983418203684       -1.79656669142933
H           -3.12511245610454        0.68574939017343       -3.18396895435217
H           -3.20910503662025        2.22189937768991       -4.07805680269985
H           -4.40615784370747        1.85743050997694       -2.79870654770308
H           -4.11281944315479        4.10108962419047       -3.12589296015396
