69
 energy: -117.520370219303 gnorm: 0.000709282844 xtb: 6.7.1 (edcfbbe)
C           -6.52529803509063        3.69232108087806        3.33696126730456
C           -6.61935902569492        2.45829465621440        2.44722085258420
C           -5.42424590475129        2.30141824846845        1.50517262155321
C           -4.07543419748696        2.10635531302981        2.19942684001752
C           -3.99562648855229        0.82540074465997        3.02641511222628
C           -2.58899200241531        0.59955399506109        3.57333633657845
C           -2.49160756595322       -0.69858033890601        4.37164619393934
C           -1.07320733243053       -0.93580665733269        4.88150406630104
O           -0.22739733341671       -0.99363221697147        3.74962094055724
C            1.09385434199073       -1.14863281049433        3.88481211084457
C            1.72444456135840       -1.38379336862338        5.10598442516481
C            3.09872829320356       -1.57591184555823        5.17018361469087
O            3.78917227504847       -1.80530557428629        6.30959025940743
C            3.09978721775984       -1.84672683451460        7.53739581624543
C            3.85934478029964       -1.53879259955857        3.99564704166149
C            3.24590668372595       -1.30164991234953        2.79202333042634
C            1.86687718315350       -1.09421712628334        2.70303952536818
C            1.22495433662831       -0.77948508574239        1.41929568138063
O            0.11736786279237       -0.33441790527594        1.26787689534883
O            2.08797099807327       -1.03232665410741        0.38931064953170
C            1.81721010029929       -0.83063092232166       -0.93583562199253
C            2.92400925381521       -0.98985985266925       -1.77651917598602
C            2.80024953085849       -0.82995445286999       -3.13684372160183
C            1.55914252721015       -0.50672953587856       -3.68930348016624
C            1.35740089642441       -0.31298418506447       -5.13496228683084
O            0.30493007893090       -0.04183514897844       -5.65038906799550
O            2.52717729735311       -0.48353297480821       -5.81812628758122
C            2.68147453171553       -0.35136506696074       -7.16522534963655
C            3.96744644920727       -0.64946937576432       -7.63410219554588
C            4.25658921058854       -0.54498203289689       -8.97215072111041
C            3.28215520469567       -0.13458900559075       -9.88208100150294
N            3.64357315740363       -0.02663924988203      -11.27615986013092
O            4.68598444804734       -0.55104926221042      -11.60852185663617
O            2.90605962976333        0.57863646416481      -12.01613807564625
C            2.00422728199042        0.15683018529624       -9.40629781016772
F            1.02807834860779        0.52479779910636      -10.23245505040204
C            1.69590036163180        0.04845831466329       -8.06005450841045
C            0.45773536450746       -0.35654446460665       -2.84729806915996
C            0.57489399111350       -0.51654128668659       -1.48157299232327
H           -7.44065739450927        3.81340552371158        3.91228868889008
H           -6.37919742364810        4.58592333395451        2.73369230296723
H           -5.69667543780774        3.60920623456525        4.03530796719009
H           -7.52359995599666        2.53214741914483        1.83771567573064
H           -6.71988086099987        1.56714170199439        3.06899368417854
H           -5.36234005068414        3.18955189776927        0.87096859383860
H           -5.60799805938924        1.44406975370073        0.85275266827192
H           -3.86006929055702        2.96537400146560        2.83696814029637
H           -3.29887170395932        2.06992993177176        1.43173984319297
H           -4.27849861676825       -0.02343252501316        2.39989352958947
H           -4.69974218785085        0.87475328792803        3.85964788536567
H           -2.30858779471095        1.44077816052400        4.21250471925775
H           -1.87715195071253        0.54943455167053        2.74854246339012
H           -2.77243868080021       -1.53497319450538        3.73027450075344
H           -3.17065764784108       -0.67570362856008        5.22658095333841
H           -1.02594538464251       -1.87890439612482        5.44434991516552
H           -0.76380505261970       -0.11180060574804        5.53933476503235
H            1.13255048278607       -1.41957592201518        6.00498190607831
H            3.86020444322237       -2.03078465719727        8.29426994541049
H            2.36593309609660       -2.65830570849127        7.55856733335481
H            2.60128550813308       -0.89607754502629        7.75013807065477
H            4.92325284308062       -1.69222507303374        4.06722569115070
H            3.83576624761433       -1.25972219046316        1.89097460647829
H            3.87435644457535       -1.24069043077058       -1.33179754857583
H            3.65994155560888       -0.95248027981969       -3.77588878712515
H            4.71864180378039       -0.95929984195293       -6.92625745303302
H            5.24126990131670       -0.77323896685665       -9.35083387789269
H            0.69362581751125        0.27444834358114       -7.73447555540254
H           -0.49731443684921       -0.11075421242962       -3.28598693183485
H           -0.28489452581825       -0.39424601812743       -0.84492014403471
