42
 energy: -49.919454676357 gnorm: 0.000129453027 xtb: 6.7.1 (edcfbbe)
H           -0.94841227262746       -2.84295700119324       -2.25363204562464
C           -1.53029098695562       -2.28930604429214       -2.97664901514122
C           -2.13068451294192       -1.15875056321666       -2.64632304494659
H           -2.70620600951038       -0.63304729052442       -3.40050072928618
C           -2.10993785203646       -0.46795828735360       -1.31341095655041
H           -3.15227918679991       -0.35066123647252       -0.98533779040059
C           -1.50944694098778        0.93388367720512       -1.46621931677590
H           -0.47256250073363        0.84574025258413       -1.79248470601448
H           -2.04941595909804        1.48502246105095       -2.24036852274526
C           -1.60483351537497        1.70530333692788       -0.15484670172264
H           -1.15627116351394        2.69419226113446       -0.27704903864884
H           -2.66589669850992        1.85597231763290        0.06372888479715
C           -0.97245120601089        1.00121463361237        1.05642348502959
H           -1.41842735669658        1.48066797728512        1.93848435860905
C            0.54366611929405        1.26184643276611        1.21336836537432
H            0.71537050360722        2.30339259582503        0.91026073535012
C            1.47607110363629        0.37721054329734        0.38541566786253
H            1.37964356453798       -0.66132146173337        0.70619888293746
H            1.22338502117916        0.43949947657491       -0.67240773842385
C            2.93051527224490        0.80827013742060        0.56387267125147
H            3.58151847814534        0.17435735507317       -0.04309612030205
H            3.05566055910409        1.84091611265467        0.22827963981945
C            3.34787983456350        0.72031908435932        2.03769917075736
H            4.37807044415459        1.08102105661756        2.15459691262217
C            3.32339839423272       -0.65460572984782        2.47817355334297
N            3.30033771719018       -1.74334714391923        2.82738227096698
C            2.40182269648017        1.56526265442582        2.90099760981551
H            2.66911202896053        1.46170758249810        3.95536471460626
H            2.52381359956307        2.61514534747719        2.62277514028370
C            0.95132120567720        1.14264175973432        2.68799733466113
H            0.30553578679116        1.77218130403039        3.30450521367982
H            0.82668253563166        0.10999751117890        3.02139181033066
C           -1.40521440301495       -0.47172597060370        1.10535263441930
H           -0.80764823259189       -1.00566522043837        1.84628258588632
H           -2.44273543847760       -0.49823356793509        1.45041019801505
C           -1.34214925908684       -1.21589823180228       -0.22823265349916
H           -1.77737857832740       -2.20812206354102       -0.08837683991731
H           -0.31027338847965       -1.34665279955858       -0.54857638388490
C           -1.59675657396379       -2.90739440795270       -4.33478577943625
H           -0.59450550419379       -3.01782752756408       -4.74861253191779
H           -2.03856526365030       -3.90198978171243       -4.27496735578035
H           -2.19145206146262       -2.30028154168985       -5.01307456940590
