48
 energy: -94.548905294943 gnorm: 0.000115409133 xtb: 6.7.1 (edcfbbe)
C            1.62132476157659       -1.95555709118453        3.93616872741096
O            0.43451574721472       -1.37701910945640        3.44302416677175
C           -0.55705617569081       -1.07155695767034        4.30359860228955
C           -0.46913600643953       -1.27745414121032        5.67381649991200
C           -1.52187646425649       -0.95763875074924        6.52736921504999
S           -1.24055600426709       -1.27101953536643        8.23284325196079
C           -2.77003638272095       -0.72756282572834        9.04389422110651
C           -2.70031188453602       -0.42785064363177        6.01238425116793
C           -2.79471561196476       -0.22262047444448        4.65548658943893
C           -1.75022992369943       -0.52276924935898        3.77984367307955
C           -1.99743515940468       -0.23141961128396        2.35881278946414
O           -3.06545314553765        0.13386948093987        1.93119935528638
O           -0.88665647906068       -0.38870192098052        1.59857187615065
C           -0.82275091075205       -0.18370418161247        0.25287413340398
C            0.47454736093138       -0.16407869350275       -0.27099650800727
C            0.68088257573004        0.02841600316880       -1.61573577703917
C           -0.39407472480307        0.20172782119484       -2.49312538681692
C           -0.19110622037727        0.40968818556098       -3.94421888196377
O           -1.03532185974849        0.31520954420841       -4.79061682851945
O            1.10744176146821        0.74299803611155       -4.18322176827552
C            1.63304844249427        0.99523761258259       -5.42331690702531
C            1.04158574406862        0.65422355790608       -6.63755040519686
C            1.69978644725425        0.94613346560577       -7.81634046870932
C            2.94076110258630        1.56863829687133       -7.78496217581545
N            3.62078231805246        1.86707215912751       -9.01814277208006
O            3.06848968654405        1.56487838148020      -10.05425312615680
O            4.70725838681040        2.40190065314070       -8.94561432987015
C            3.53910197269886        1.90675541133088       -6.57470913359701
C            2.88453724404249        1.61956147260797       -5.39947670229209
C           -1.67975876696280        0.16387730342212       -1.94953776001707
F           -2.74654965901927        0.33039789014712       -2.73453293237609
C           -1.90957731094744       -0.02243285543068       -0.59754580393573
H            2.24503928046187       -2.12839611937855        3.06063192345411
H            1.42743273852118       -2.90987517905954        4.43467842376807
H            2.14154773895117       -1.28233605439321        4.62418081006763
H            0.42301854882279       -1.69056954701448        6.11590434753611
H           -2.61461482768106       -0.90055418003696       10.10435876725794
H           -3.60816162047923       -1.32190988461830        8.69279327581395
H           -2.92936598328646        0.33111907044774        8.86271475053815
H           -3.53170001347639       -0.17668155354042        6.64864586819674
H           -3.69694791375750        0.18836360785494        4.22842775644500
H            1.29977890129233       -0.30170524841234        0.40859194332892
H            1.68389644187459        0.04249650946973       -2.01062137771414
H            0.07698621656009        0.17610065648077       -6.66257618795117
H            1.26083046813650        0.69404881629469       -8.76955604221116
H            4.50424689304075        2.38935138366629       -6.57810446970936
H            3.31940256842109        1.86959269659378       -4.44493400100218
H           -2.92283029868784       -0.02823420816000       -0.23110547263503
