49
 energy: -107.294709636346 gnorm: 0.000228382898 xtb: 6.7.1 (edcfbbe)
C           -8.17263105141293       -0.09539135892586       -2.11183002608600
C           -7.92517630464832        1.40756636161131       -2.13271843973739
C           -7.26368360019518        1.85797939661975       -3.44251398056348
C           -5.90108245293454        1.23704063338614       -3.60319096277197
O           -5.58849350610507        0.43917507661213       -4.43882820665623
O           -5.07378945537614        1.71864961716760       -2.63836370825178
C           -3.77524325247126        1.33810322877540       -2.44712985978593
C           -3.18085144181571        1.87017848172993       -1.30193199348930
C           -1.87534864035045        1.55030164029112       -1.00038634003622
F           -1.33212076799289        2.09367123170424        0.09575048110774
C           -1.10712190313822        0.71182536135403       -1.81030349707426
C            0.31347451961319        0.37019649722232       -1.50569415076418
O            1.17971422753123        0.25811405192939       -2.32438856232496
O            0.46223733363502        0.22297519168146       -0.17526213133538
C            1.65798521194665       -0.09378537349376        0.42483492105133
C            1.79262036768274        0.32128455390213        1.74816156278808
C            2.93316861233458        0.01163378543918        2.45573027438054
C            3.96641775562528       -0.72974904927061        1.87970377649758
C            5.17043796919314       -1.06687115603367        2.65128138233986
C            5.74683561494984       -0.11139080676436        3.48723668721507
C            6.86163079220203       -0.43130405551164        4.23544219546658
F            7.41341473182821        0.50774504954057        5.00485270072196
C            7.44478374819946       -1.69685068389103        4.17362185467251
N            8.61500715114755       -2.02667474444442        4.97336505795187
O            8.58707270115606       -1.69703135262835        6.13327343966428
O            9.51370665279169       -2.60252896568718        4.41387889314023
C            6.86062350192473       -2.63526673588624        3.32312333312736
F            7.36421251006186       -3.86748300294244        3.26724849260301
C            5.73814680586335       -2.33694640247690        2.57543099446920
C            3.79673719125629       -1.12973559021496        0.55511999522370
F            4.77009502415750       -1.82578095664116       -0.05680207370239
C            2.66869911566443       -0.82390834524386       -0.18376627812653
C           -1.73238110737798        0.21292223944696       -2.95318364640537
F           -1.05787394788609       -0.61239425369282       -3.75348033541609
C           -3.04489186610269        0.50187182960068       -3.28266406889130
H           -8.65653599451934       -0.38608489839172       -1.18269352910928
H           -7.23726366939223       -0.64402912342895       -2.19786688013723
H           -8.81391787452779       -0.38803282011904       -2.93972784481543
H           -7.28721242285025        1.69053036748596       -1.29372916758401
H           -8.87468715349195        1.93492630908833       -2.02690720597008
H           -7.14916650400431        2.94304737055639       -3.43675363254834
H           -7.87399033908711        1.56117585270269       -4.29558100070613
H           -3.74187488635713        2.52759639072048       -0.65832322111588
H            0.99058198648467        0.88413748068080        2.19748314416363
H            3.02222138603594        0.32330621578635        3.48450854000872
H            5.34913450554126        0.88881132545265        3.54698555824548
H            5.31595687962200       -3.10577416503294        1.94910444563070
H            2.60348838722654       -1.14974306250982       -1.20884239867076
H           -3.47301654164283        0.07202136276650       -4.17327458839770
