72
 energy: -120.690996647685 gnorm: 0.000255129713 xtb: 6.7.1 (edcfbbe)
C            1.20342827435335       -3.11181271634326       -0.43877732240469
C            1.70717926491291       -2.20017688161231        0.67331863532564
C            0.59687670675501       -1.84254554405745        1.65908871128003
C            1.12513062248236       -1.05543200383828        2.85716373877520
C            0.07996376083468       -0.86665744472236        3.95779039001157
C           -1.03066461184504        0.10357723396563        3.56455071591994
C           -2.08892368055744        0.23175148926725        4.65843770676299
C           -3.33477568240949        0.99409065800648        4.20615849011856
C           -3.07338963500905        2.46185428492196        3.87733357028249
O           -2.41926435136320        2.51810341720958        2.62480546672120
C           -1.93340829365053        3.67462907537357        2.15903265031319
C           -2.18086774860870        4.91271703508573        2.75072042178346
C           -1.63658017590792        6.07534352627156        2.21939039429763
O           -1.83883339415273        7.31503285824856        2.71992087484731
C           -2.66712358327166        7.47658299163202        3.84770656197441
C           -0.81609712009827        6.00298736737497        1.08771212521776
C           -0.56040605836317        4.78680517081020        0.50683638580625
C           -1.10812837931654        3.60663910634326        1.01520874040174
C           -0.83997755067796        2.31554349550814        0.37076212747590
O           -1.46718027437404        1.29752864209538        0.49444302899683
O            0.28228319711857        2.40335423933647       -0.41154266930286
C            0.69713031083731        1.35884282221988       -1.19445563079246
C           -0.17704916022868        0.50993296245049       -1.86751483341384
C            0.32783256326294       -0.49104183517857       -2.67174382280281
C            1.70432223833870       -0.65241252725656       -2.81984930028809
C            2.28786658007890       -1.72131207381360       -3.64645479976778
O            3.45774422060140       -1.84669170750749       -3.89396554590140
O            1.32585999021624       -2.59076784763543       -4.07554257833941
C            1.58848571981832       -3.66045120516559       -4.87949293948895
C            0.69935332474769       -4.73390168734276       -4.76704254733530
C            0.85136140117684       -5.83776690920630       -5.57085046660404
C            1.89106368918337       -5.90692767193607       -6.49770066251164
N            2.01242511342000       -7.09624806687975       -7.30859331489877
O            1.05014314587228       -7.83439770500211       -7.33561556374313
O            3.05036590624214       -7.28919291726714       -7.89429250690480
C            2.76885193207696       -4.82819305393626       -6.60442921409624
F            3.75201574992553       -4.82508209667780       -7.50117019603988
C            2.62124946241383       -3.70486816643790       -5.80806748932075
C            2.57398622407297        0.21702822839777       -2.15881526794809
C            2.07571409793632        1.21409696941192       -1.35109424545033
H            1.99666848773920       -3.31657415136193       -1.15517195042558
H            0.37426427645766       -2.64471790529814       -0.96515819964071
H            0.86046699419997       -4.05887110031911       -0.02714420156086
H            2.11521768504088       -1.28529453612968        0.23750010477763
H            2.51778158089930       -2.70252291116249        1.20716520968464
H            0.13118387528873       -2.76396947689003        2.01771742895774
H           -0.16625964976192       -1.26020985969460        1.14062981352582
H            1.48123035641876       -0.07847820116829        2.52176661107269
H            1.98068842396878       -1.59171825993874        3.27695644485263
H            0.57553023226423       -0.49175624940569        4.85776185675117
H           -0.35515081192309       -1.83838415868658        4.20476836011936
H           -1.51130182901150       -0.23128321048817        2.64623428642098
H           -0.59019267212367        1.07940876815290        3.35846733889981
H           -1.65808873357871        0.72289850631995        5.53523221696510
H           -2.40079234818145       -0.76970733778312        4.96527075430011
H           -4.08842195483854        0.95279497469898        4.99526838791391
H           -3.74231835092824        0.52098921322327        3.31217276456650
H           -2.44721432442460        2.92077344130392        4.65491208355122
H           -4.02801822383937        3.00484710454911        3.82471048519501
H           -2.81191928165261        4.96185899443968        3.62209859833414
H           -2.68288845383795        8.54629379133942        4.04905221598545
H           -2.26545480181837        6.95139185756308        4.71985559386535
H           -3.68662241842426        7.13156748867037        3.64953901310243
H           -0.40253965271261        6.91583938694613        0.69257588127200
H            0.06847042045929        4.73151572433298       -0.36727993767515
H           -1.24204576108203        0.63013733775423       -1.75464181737103
H           -0.34806088891194       -1.14825044296414       -3.19581506098371
H           -0.09668921497623       -4.67606659455968       -4.04292889358749
H            0.17617270623472       -6.67708210788063       -5.50141327893657
H            3.31856218789440       -2.89100572534065       -5.92024186625787
H            3.63740548565440        0.08370278437909       -2.28542872972363
H            2.73235286266333        1.89131134309587       -0.82782133279608
