48
 energy: -96.473990663895 gnorm: 0.000238223561 xtb: 6.7.1 (edcfbbe)
C           -8.38256946631658       -1.72800325161357        1.36465063477899
C           -8.49440964299787       -0.80938993721551        0.15431428280037
C           -7.46213420386885       -1.16678683343668       -0.91913704250305
O           -6.12187996933756       -1.10894917906871       -0.48282239193992
C           -5.63618145418611        0.18624527433641       -0.24013885097931
C           -4.13561391029437        0.17501153910991       -0.14478939730629
C           -3.43956895881469        1.37489333012650       -0.05875442408490
C           -2.06260755711477        1.36202901982897        0.02000661401191
F           -1.42259626650561        2.54543605922624        0.07339157384509
C           -1.31042008830324        0.18573785718572        0.00804283021209
C            0.15952898738675        0.19941700287199        0.04777314048385
C            0.83550519847490        1.03067237171544        0.93952413585380
C            2.21300913901897        1.05658084502915        0.93708282425249
F            2.85123484116617        1.86088816335132        1.80207896728966
C            2.97640316613069        0.27568330129059        0.06205173775579
C            4.38001821693140        0.33739554667367        0.04269057504410
C            5.58556794422544        0.40321108718958        0.00412540031090
C            6.98840677185000        0.49012892534115       -0.04890715538643
C            7.70518303114421       -0.32568007914924       -0.92910136305825
C            9.07738342170244       -0.21892314318125       -0.97940769791514
F            9.75990947331082       -1.00124963845261       -1.82502595127867
C            9.78392209630746        0.68379877236391       -0.17546272857488
C           11.19210793033754        0.78565091528077       -0.24328584842063
N           12.33251609192777        0.86952197829356       -0.30057705138452
C            9.03523934469441        1.48356210588523        0.69658762861081
F            9.67690678148299        2.35833483676201        1.48149275426946
C            7.66259796846199        1.39999759094632        0.77071390224161
C            2.26531173424582       -0.55724521415634       -0.80941431822891
F            2.95524226244814       -1.32446083656961       -1.66837360358777
C            0.88888226388881       -0.60565505600621       -0.82621969385015
C           -2.04970300948188       -0.99480061779391       -0.07163921959354
F           -1.39631198729156       -2.17096129931109       -0.05758911843981
C           -3.42866419475024       -1.01776640055802       -0.14120076449364
H           -9.08250372063851       -1.42672706803973        2.14003421131632
H           -7.37452928027660       -1.69328793619974        1.77084011785425
H           -8.59962875230187       -2.75504188062216        1.08115152377350
H           -8.36025133410153        0.22961716689825        0.46294996548498
H           -9.48629748081128       -0.89581776357216       -0.29236443851655
H           -7.59759491482983       -0.51295301564095       -1.79507077028501
H           -7.60207998937592       -2.20474833378649       -1.23133799283678
H           -6.04461380907012        0.59308850237196        0.69969794536577
H           -5.94060970049103        0.86589492394549       -1.05345138706519
H           -3.95535851439680        2.32227331589610       -0.06036966121665
H            0.30181164500253        1.65573368532717        1.63703842856586
H            7.19605659249050       -1.03159977768720       -1.56577867412251
H            7.12012031298191        2.03403348785916        1.45375914969249
H            0.39654790152484       -1.25823255890257       -1.52891554521576
H           -3.95328491158605       -1.95655778416791       -0.20090325353420
