41
 energy: -81.854916253594 gnorm: 0.000150906750 xtb: 6.7.1 (edcfbbe)
C           -0.40198912036993        5.53796575246091       -2.36474644004806
O           -1.23254392663704        4.39911870996637       -2.30070318066650
C           -2.43647081781340        4.47049074557745       -2.89341648409904
C           -2.97589825199428        5.57488155505615       -3.59666483025321
C           -4.22517015549494        5.32488864155421       -4.07787525200241
S           -4.79127274133691        3.75928345398471       -3.70173877195020
C           -3.31656709410303        3.39750805900137       -2.86580542975244
C           -3.18710240073198        2.08356034880122       -2.26595268949756
O           -4.04948631240467        1.23955027781292       -2.30851045078790
O           -1.97654066352805        1.94863219349516       -1.67484687248902
C           -1.54867313897046        0.83809604994408       -0.99679308999431
C           -0.20239021314244        0.88282187809675       -0.62373687711999
C            0.36110999299181       -0.15585227080395        0.08062016014798
C           -0.41624426243713       -1.26236616669512        0.42766995856625
C            0.12543815999243       -2.40209682791210        1.19014983759798
O           -0.51441638038305       -3.35353457367297        1.55438685691629
O            1.46083064972206       -2.25685869902407        1.41321456266780
C            2.19377590136623       -3.15043311657706        2.15041511132310
C            1.68447620286405       -3.87878588589601        3.22287044923346
C            2.52237118305052       -4.71565074502714        3.93237163685951
C            3.86131881199251       -4.81866200181547        3.57667290925122
N            4.73073473344729       -5.69045210862105        4.32280346140609
O            4.24947182414142       -6.31099809104217        5.24656648174073
O            5.89383348896488       -5.74958806472222        3.98348737263256
C            4.37708896764846       -4.08648244274201        2.51176257698853
C            3.54219538238916       -3.25408739800037        1.80125234327964
C           -1.75855961280766       -1.29912979740640        0.05428790046831
C           -2.33074819977195       -0.26083629339873       -0.65356163176163
H            0.50481380625216        5.27126189623211       -1.82494120984171
H           -0.86972825918241        6.40148996008841       -1.88245603051761
H           -0.14787753952553        5.78977680647382       -3.39875222276159
H           -2.46735502460594        6.51014960941861       -3.74194963460070
H           -4.84480919343903        5.99403887053488       -4.64146843454857
H            0.37346302006191        1.75106976495716       -0.90247411459885
H            1.40003680063815       -0.11686345106045        0.36727061311462
H            0.64508962953927       -3.79746265966357        3.49354023394139
H            2.15279585576214       -5.29214704086411        4.76651880546259
H            5.42146945224454       -4.18524883341231        2.25875064469002
H            3.91024589465300       -2.67353086660230        0.97042573955517
H           -2.34829522832541       -2.15979469119542        0.33077466287202
H           -3.36840122071701       -0.30375254730553       -0.93941867142436
