47
 energy: -97.882254319306 gnorm: 0.000151594002 xtb: 6.7.1 (edcfbbe)
C           -1.11856696630680       -4.97000431123399        7.93251003928475
O           -0.74780609767883       -5.02490702593219        6.57163554053297
C           -0.79389287587113       -3.89919569503983        5.83618469117972
C           -0.39171226427909       -4.01675342912751        4.49839632290385
C           -0.39351383136615       -2.92385762545896        3.66870394633843
C           -0.79562639928405       -1.66245698123380        4.12408707235629
C           -0.76639701351604       -0.47085425451135        3.25165518914274
O           -0.98586816095051        0.65808697258930        3.59330252759401
O           -0.46470327868978       -0.83025952732479        1.97225061715315
C           -0.22226371588632        0.09720889430359        0.98646336393420
C            0.36880059719414        1.33500934462398        1.21043412636685
C            0.64432760402268        2.13269442291375        0.12214277883554
C            0.35999073630769        1.73509447368929       -1.18431676160905
C            0.75971613061784        2.67462541255489       -2.24793005068774
O            1.12482603932762        3.80390103867755       -2.03989871166589
O            0.70254021249182        2.10474059825547       -3.47732125253840
C            1.04988833539800        2.70902714535856       -4.64576638589217
C            1.49390936564790        4.02016572049014       -4.79008065416990
C            1.81697295193747        4.47904410726244       -6.05258876481064
F            2.24583403187298        5.73890438531894       -6.18098815292519
C            1.71609945715207        3.68339285878488       -7.19674328694351
C            2.05751803227850        4.17524099611947       -8.47742395737059
N            2.33455158157096        4.57076497172141       -9.51535134581692
C            1.26204791252763        2.37262292351137       -7.01158442519508
F            1.14520050402059        1.56762826554201       -8.07500303508412
C            0.93353013020604        1.88446327039761       -5.76844344335921
C           -0.26328279412324        0.48703329998566       -1.40419524929346
O           -0.57103973819862        0.14064481137648       -2.66871304270516
C           -1.25045015609137       -1.07217780655352       -2.90626072816231
C           -0.54155270172564       -0.31476953178348       -0.30248573720784
C           -1.19918932287666       -1.56729839593927        5.45655327795827
F           -1.60686484175227       -0.39955183025591        5.96332463887334
C           -1.20431106214576       -2.65605208898078        6.30936798319530
H           -0.98912259922205       -5.98175054390233        8.31220071919629
H           -2.16355040956252       -4.66943461011042        8.04977938378574
H           -0.47458391573615       -4.28672827841610        8.49337874697730
H           -0.07774840901061       -4.98537580121785        4.14498368642860
H           -0.07411374037381       -3.02668747890289        2.64440911055190
H            0.60442842565961        1.66457796918419        2.20761337351021
H            1.10851950554597        3.09730694786306        0.25868143078009
H            1.59357302193684        4.68031995062729       -3.94428571697673
H            0.58810087422716        0.87109954910364       -5.64979159013573
H           -1.42158435921839       -1.10383872349048       -3.98100795474643
H           -2.21301604051539       -1.10192305521780       -2.38764010854813
H           -0.64675195766458       -1.93560280227141       -2.61142320867312
H           -1.00422651103393       -1.28154575937726       -0.41433948123695
H           -1.52862628697009       -2.50255277399093        7.32553447885858
