63
 energy: -109.057333092758 gnorm: 0.000139181998 xtb: 6.7.1 (edcfbbe)
H          -13.18544170710234       -0.81331802227660       -1.96335926683291
C          -12.12143701814602       -0.67664111395716       -1.84072794845492
C          -11.62957479963138        0.50596405228453       -1.31428234490568
H          -12.30839660955912        1.29507138907573       -1.02745845773380
C          -10.26812254142787        0.68367553260660       -1.15433819063983
H           -9.88978791344575        1.61162258892582       -0.75363186035350
C           -9.38219307285428       -0.32490086824648       -1.52461186511278
C           -7.93014240823644       -0.13874843669974       -1.35652694953303
C           -7.37987093011737        0.36228009123689       -0.18142006677623
F           -8.17924832026056        0.66885457043384        0.85122827183391
C           -6.01210184267428        0.54195261137057       -0.00580777801622
F           -5.60075411349469        1.02838024729202        1.18567344349997
C           -5.10093590769654        0.22961818907148       -1.01799910170742
O           -3.76700593810113        0.34977176037060       -1.00111935913738
C           -3.09314332317672        0.85676346827501        0.14463056727853
H           -3.43981257903852        1.87214849943833        0.36871666944646
H           -3.28892805082923        0.21736363222789        1.01291194035464
C           -1.60401496201222        0.86728996517611       -0.17734996581771
H           -1.28866935442198       -0.14971824372303       -0.41408483186080
H           -1.44186601342435        1.48043840163778       -1.06498321245399
C           -0.78871900439610        1.40960759821609        0.99281138130360
H           -1.11549357797212        2.42656554622665        1.22214193590405
H           -0.97381131810166        0.79654393588108        1.87735994751272
C            0.70615396852193        1.41475655187295        0.68602419888911
H            1.03863736811886        0.39969752444575        0.46543277141522
H            0.89381561246667        2.02871359458388       -0.19765543930521
C            1.52102712771753        1.95338557194258        1.85954970060417
H            1.23991069731133        2.98704733011490        2.06848848600681
H            1.31650680424807        1.35536956750878        2.74893288997030
C            3.01966026086334        1.90404968523045        1.58013969858285
H            3.24695393857226        2.43307849380623        0.64403818793384
H            3.56929158324538        2.38605094163214        2.40061761223411
O            3.39777577722805        0.54629246993300        1.47578340479566
C            4.70036864698427        0.23842854544377        1.25635921864174
C            5.73057597570556        1.16220734895296        1.10938671876614
H            5.53662052262204        2.22240666265445        1.15367086886504
C            7.02617059055314        0.72605218788797        0.90088297641075
H            7.80963449510705        1.45869416172176        0.77299813849415
C            7.33139972413239       -0.62855948847628        0.81975737417297
C            8.70931307502382       -1.07983096208094        0.59571619436746
C            9.77894038680392       -0.44183440597044        1.22622038044472
H            9.58545979489777        0.38064514616022        1.89871437176419
C           11.07543453761047       -0.86426257617777        1.02344056822255
H           11.89878387025601       -0.37110160157138        1.51935696581878
C           11.32943420337483       -1.94215313617936        0.17369953801531
C           12.65553452237895       -2.37923973769318       -0.03802587219654
N           13.73299862326610       -2.73301488862163       -0.20953449510582
C           10.26876926303395       -2.58662339525120       -0.46507923341917
H           10.47011214748924       -3.41705175264613       -1.12600460706837
C            8.97641440036156       -2.15720153238884       -0.25083659885089
H            8.16023963786741       -2.64758868336330       -0.76020281875641
C            6.28983215676231       -1.54764676580531        0.95848824525602
H            6.50188555198446       -2.60580653612652        0.92040064473602
C            4.99952328987650       -1.12434724313809        1.17867209284446
H            4.19422874192224       -1.83186558070703        1.29846648795604
C           -5.65777536918660       -0.27431925101770       -2.20640089299232
F           -4.82515045876184       -0.58399452496730       -3.21182885862403
C           -7.01934081650453       -0.45416298101328       -2.36719938378980
F           -7.46487211708577       -0.92074589711351       -3.54214728693488
C           -9.88210556442841       -1.51132732349549       -2.05529137224203
H           -9.20427745654961       -2.30330039327138       -2.33464981355232
C          -11.24498081441502       -1.68335385020888       -2.20954874220862
H          -11.62346339324836       -2.60808867149108       -2.61859527799833
