48
 energy: -64.665863625564 gnorm: 0.000129224060 xtb: 6.7.1 (edcfbbe)
H           -7.66161330052119       -6.79456337928636       -0.36853756495775
O           -6.70526284112261       -6.76254967184566       -0.26645736039560
C           -6.26980024528736       -5.42467968305907       -0.38343019965264
H           -6.54133602928343       -5.01687267755940       -1.36861274813510
H           -6.74268236735227       -4.79807074218772        0.38758941840587
C           -4.75495685898225       -5.39476163677365       -0.21257502418938
H           -4.51134848927644       -5.82624228778145        0.75952078718682
H           -4.30928141533856       -6.03200700173502       -0.97782641803095
C           -4.19432478374839       -3.98004779279923       -0.31376526362470
H           -4.44137659514387       -3.55992221041509       -1.29172792375729
H           -4.66511334978272       -3.34909092034074        0.44417104126039
C           -2.68024119554917       -3.95582863997859       -0.11965895323832
H           -2.43656051398628       -4.38763414717050        0.85364046434936
H           -2.20821707823131       -4.57773732322153       -0.88340114970720
C           -2.11378369382355       -2.54013891056221       -0.19791018845189
H           -2.34161211669032       -2.11157668102624       -1.17669557801434
H           -2.59953050159935       -1.91566970255685        0.55575445691962
C           -0.60385535333191       -2.51591454529598        0.02655462185030
H           -0.37836567268021       -2.96187578518803        0.99827580851070
H           -0.11472990377392       -3.12544038439596       -0.73689615186756
C           -0.04135150598086       -1.09815196843807       -0.01897144504203
H           -0.25050973257487       -0.65105704611180       -0.99354820544820
H           -0.53674944269197       -0.48496454303791        0.73747766269466
C            1.47166715699528       -1.07600758617441        0.23067101105194
H            1.67872462129878       -1.53669493608607        1.19901679994221
H            1.97077893188025       -1.66504735183044       -0.54134768526660
C            1.98611575482104        0.33251426189259        0.21583546502567
C            1.96021018678159        1.10744434081125        1.36930119664749
H            1.59281774161952        0.67698626145747        2.29012229654241
C            2.40083366829385        2.41581041197067        1.35598183084121
H            2.35798563403492        3.00469783151211        2.26079146535958
C            2.87264310311429        2.99399786949439        0.17934649344495
C            3.34379652865462        4.38444574286502        0.16229034447266
C            4.10784442159776        4.88819644952361        1.21595175277223
H            4.36781665212970        4.24124397502068        2.04066898742570
C            4.55625658620277        6.19190812579028        1.20544677105785
H            5.15236047671730        6.57542348806494        2.02063845814651
C            4.24134932863526        7.02525096874077        0.13089214104341
C            4.69535786735946        8.36262917298889        0.11583170090582
N            5.06284933940951        9.44898540442300        0.10472152193617
C            3.47637766909086        6.53356030494498       -0.92800056275875
H            3.23180191143244        7.18333769988743       -1.75565713947714
C            3.03742814741702        5.22670363691456       -0.90747196159620
H            2.43156121881408        4.85459990586285       -1.72033665957913
C            2.89037052207117        2.22053097165824       -0.97917231285473
H            3.27282648774834        2.64260385781938       -1.89725985996442
C            2.45588495180502        0.90971025060324       -0.95737390165989
H            2.48692407882074        0.32195662262007       -1.86384824012119
