43
 energy: -99.098017306296 gnorm: 0.000210555077 xtb: 6.7.1 (edcfbbe)
C           -2.43971730799699       -8.11335531623850       -3.83999193058025
O           -2.57717235263035       -6.73385213467925       -4.11403393812868
C           -2.05933922685535       -5.84322075494428       -3.25607471626964
C           -1.36409988909793       -6.16680935945485       -2.09164581855454
C           -0.89206317670816       -5.15393939201105       -1.27968409469302
F           -0.21479585370101       -5.50947052918021       -0.18563466694498
C           -1.06073532508180       -3.79903736748457       -1.57197256165525
C           -0.57775008866032       -2.75576096598857       -0.63128679492418
O           -0.49551365459059       -2.89963925179211        0.55645899033243
O           -0.26280613337664       -1.63305330244808       -1.31325334888827
C            0.10645912735216       -0.44406106624427       -0.74586310969225
C            0.17080083923897        0.62990724023748       -1.63850499102679
C            0.51678022178631        1.87945579649008       -1.18456532721812
C            0.80492734485990        2.10865236930793        0.16512843296890
C            1.13266360309262        3.49642573408832        0.56622654599736
O            1.30837317750078        4.39115278710847       -0.21891555324947
O            1.18890271844016        3.61635842126996        1.90935790607622
C            1.42646366240523        4.77082012832900        2.59725878204573
C            1.55955648424428        6.03580669031189        2.03517456626373
C            1.77634979611225        7.11357981135310        2.87261393595300
F            1.90040213983895        8.32751659729740        2.32706347369730
C            1.86720401783542        6.98560051181557        4.26072140341873
C            2.08406554467073        8.10628346236829        5.09575509125445
N            2.25784984117998        9.01418536890650        5.77074237422227
C            1.73032272725623        5.69524332250364        4.78597257174364
F            1.81052805653697        5.52161870459654        6.10902864638655
C            1.51358923061431        4.60049861499473        3.98052655417716
C            0.75080834341118        1.01662798927402        1.03052655294058
F            1.04107885689035        1.15350774400461        2.33102182829867
C            0.41136906750822       -0.25279817896763        0.59536356928813
C           -1.75352400615773       -3.51263631312333       -2.75452030164233
F           -1.98538615445890       -2.23875943477279       -3.09608725957892
C           -2.24820667794776       -4.49481955345437       -3.57945383756121
H           -2.94088626990555       -8.62441980987296       -4.65965391610090
H           -2.92173162572300       -8.38115422097953       -2.89593989370767
H           -1.38814021033116       -8.41145347034380       -3.81496560369491
H           -1.17974162347749       -7.18512788415096       -1.79284337474573
H           -0.06635428672051        0.45268804817740       -2.67480121362244
H            0.56616118361978        2.72045250805842       -1.85882998475869
H            1.49988029723784        6.19520860961564        0.97116722115344
H            1.40948945701880        3.61538595870462        4.40501028944769
H            0.38171022489354       -1.06115284659110        1.30760120773856
H           -2.78777210012436       -4.23247526608939       -4.47419770617291
