32
 energy: -49.011882409257 gnorm: 0.000551053367 xtb: 6.7.1 (edcfbbe)
H           -1.68460308653464       -4.38765852260252       -1.96606927982675
C           -1.53697530003581       -3.87422520574374       -1.02728926659871
C           -0.87089989994651       -2.66770975162264       -0.98383837970758
H           -0.50594710086973       -2.22664634331155       -1.89955572325383
C           -0.68330940432960       -1.99640474427342        0.22511922074691
C            0.02328378867597       -0.70962692446107        0.26351253366257
C            1.16490462938516       -0.50071883557311       -0.50800596684186
H            1.54879727543593       -1.30268582648953       -1.12159605049178
C            1.82770434247500        0.70976270234400       -0.46944390559740
H            2.71837225765335        0.85037680208335       -1.06555560102326
C            1.37014371664149        1.74884522517728        0.33287378094111
C            2.07016228400181        3.07691265952871        0.33030340150234
H            1.80629735314050        3.64039946067713        1.22660867018176
H            3.15132707269993        2.92386311676600        0.32553241683645
C            1.68828895252579        3.90808010669002       -0.90338370652441
H            2.29011638653294        4.81856944520060       -0.92319906114883
H            1.88570297989112        3.34040457806589       -1.81422063106059
C            0.21623527067200        4.29339919884965       -0.89783929695911
H           -0.05167430094001        4.86321936143198       -1.79352833544264
H           -0.42969919806245        3.41420695018854       -0.80525525863375
F           -0.06372901068185        5.10301051069969        0.17879391892888
C            0.23181531154400        1.54085557114093        1.10197502339086
H           -0.13901587560155        2.33790914286366        1.73045721765858
C           -0.43121579548024        0.32895490399923        1.07268981901451
H           -1.32524793898656        0.19399797003944        1.66388238149360
C           -1.18024305144540       -2.56916492443356        1.39663886615334
H           -1.02615471262593       -2.06765101325403        2.34037247183746
C           -1.84360540939975       -3.77758639514352        1.36707895400960
H           -2.22197831434049       -4.21976997156758        2.27698432917512
C           -2.02762197035979       -4.43837776772680        0.15137153329071
C           -2.70897918882802       -5.67526748300377        0.11333408162281
N           -3.26224206280664       -6.67926399653714        0.08126184266416
