60
 energy: -103.812128502714 gnorm: 0.000115034649 xtb: 6.7.1 (edcfbbe)
C           -5.36043538809613       -1.60426312517471        0.41790235088386
C           -5.38688523795425       -0.21845966759965        1.05028465468893
C           -4.80651854138092        0.83633784273219        0.11270842056150
C           -4.81004258736659        2.22636639985374        0.74454785402347
C           -4.20884837016178        3.26857106863706       -0.19365379445418
O           -2.87878442245759        2.87012113572346       -0.46737222363794
C           -2.11592226661141        3.58537115755130       -1.29912691497022
C           -2.50349502832961        4.79086551821253       -1.86801349656753
C           -1.64841420117974        5.50766256579660       -2.70347496131326
O           -2.15212725766206        6.66537043429627       -3.19033923710473
C           -1.34903597235938        7.45368952676911       -4.03898471069139
C           -0.37403073032696        5.01189031041544       -2.97634086992247
C            0.01434178392565        3.81179003368069       -2.42179688370446
C           -0.82626343061541        3.07422409935305       -1.59143445926607
C           -0.40803311835840        1.77704152853656       -1.04579300260542
O           -1.09467691964615        0.99208349728847       -0.44694577058437
O            0.90592131441550        1.52925814036231       -1.34714618692925
C            1.55743761927711        0.40960358068943       -0.89838191634669
C            1.32747482580520       -0.17370724057070        0.34425572783822
C            2.07280273338529       -1.26886139495717        0.73282989044436
C            3.05710847786228       -1.78878064095586       -0.10513151093719
C            3.87700388799084       -2.95770002019994        0.26356691871850
O            4.71144676333373       -3.46135603073018       -0.44256569999891
O            3.59253866668479       -3.38287403719978        1.52403695538644
C            4.17772765066640       -4.48331027502921        2.09396135082579
C            4.61205262349377       -5.59725056106649        1.37939556141596
C            5.14610882036459       -6.67289603447979        2.06032945712362
C            5.24001619815852       -6.63826613921061        3.44592156664533
N            5.79782265655659       -7.76328092614201        4.14958773623169
O            6.15975274101234       -8.71622452075712        3.49290535717451
O            5.87117985323118       -7.69076204224345        5.35824055346546
C            4.79815639360539       -5.53209838310276        4.16531400267315
C            4.26784154081174       -4.45778344803364        3.48782137750864
C            3.28766804636081       -1.19201124811971       -1.34615124300154
C            2.54508902581035       -0.10258457213287       -1.74042462196876
H           -5.76812216237457       -2.34682316114714        1.10015780142979
H           -4.33964317918265       -1.88567572012436        0.17044645336839
H           -5.94995947951380       -1.61824182587927       -0.49639985001335
H           -4.80881574791725       -0.23298901696406        1.97654403815768
H           -6.41624714700068        0.04648277977115        1.30592126877188
H           -5.38802006159444        0.85717961579614       -0.81243964915859
H           -3.77776672056488        0.57540883619448       -0.13887457113476
H           -4.22035204009799        2.20460418611544        1.66192797195571
H           -5.82846841074547        2.52986421115509        0.99579977221234
H           -4.21937452227509        4.25932022268298        0.28110987618694
H           -4.78410734710744        3.31703380749311       -1.12809968017368
H           -3.47602033039922        5.21442453599907       -1.68049194461072
H           -1.95756157342008        8.31835882056561       -4.29829483191063
H           -1.08012540868877        6.91359981369478       -4.95167276670342
H           -0.43993067039985        7.78997144320482       -3.53154684773419
H            0.30957431778581        5.54594093873531       -3.61526316012705
H            0.99616352476792        3.42334538386685       -2.63997048852748
H            0.56676400785549        0.22302706113763        0.99609791052029
H            1.89265017687942       -1.72373568161109        1.69391112160437
H            4.54026061997939       -5.61887387933581        0.30492996362266
H            5.49148056892608       -7.54741178815998        1.53054050174181
H            4.88070106990478       -5.53359034356836        5.24126501636503
H            3.91616212047708       -3.58548706455279        4.01521169589802
H            4.05389863457513       -1.60311881303336       -1.98534697258683
H            2.71086160991791        0.36965910578375       -2.69598486075265
