53
 energy: -94.172788114458 gnorm: 0.000146092324 xtb: 6.7.1 (edcfbbe)
H          -10.95985056015124        1.81152611747714        0.48622334290141
C           -9.91662136088501        1.62898116569738        0.29406041369220
C           -9.01828622517786        2.67616955998780        0.17056444441016
F           -9.45733326050122        3.93339929524504        0.29184495943260
C           -7.67712647826145        2.43926185315940       -0.07489226940623
F           -6.82286541229315        3.46569488337574       -0.19026293582874
C           -7.16505981491964        1.13457884410897       -0.21042729864120
O           -5.85120052408198        1.05291824221264       -0.44367477141272
C           -5.19921577666778       -0.20568277843838       -0.57833637869961
H           -5.34450282924384       -0.80638973118747        0.32639617996037
H           -5.60720511743677       -0.75292815012646       -1.43572411419006
C           -3.71771020958410        0.08228471508886       -0.78759576001624
H           -3.60344898156478        0.70187962349556       -1.67813124111764
H           -3.35012520524558        0.65538986639611        0.06470279040709
C           -2.91243349835822       -1.20525547762196       -0.93657835353360
H           -3.05713120716823       -1.82761186298998       -0.05104819976941
H           -3.27946997740404       -1.76689266002670       -1.79863506375594
C           -1.42427008097673       -0.91635460304127       -1.11288678534536
H           -1.27805572959425       -0.29063403500691       -1.99615180014560
H           -1.05471378190786       -0.36527827440930       -0.24716831681381
C           -0.60798878825369       -2.19834343406477       -1.26012761068262
H           -0.78106388087994       -2.84150998555122       -0.39600388445471
H           -0.91370918874745       -2.73851361792506       -2.15770978843493
C            0.88645634974821       -1.90589815759931       -1.35120007808543
H            1.43938545353928       -2.83300529745804       -1.55719080930235
H            1.08178875142750       -1.19047787989482       -2.16202681130052
O            1.29644125150834       -1.36208011609341       -0.11273016989684
C            2.58945119962548       -0.98558102159466        0.04962388079318
C            3.58964555401228       -1.11011012070433       -0.90957375068374
H            3.38121300354581       -1.53974101739044       -1.87684697044214
C            4.87497862251839       -0.68474891889643       -0.62768697584607
H            5.64169266942614       -0.80701847785377       -1.37871375804099
C            5.20391831230043       -0.13834029190424        0.60851086025301
C            6.57248293559824        0.30324119646537        0.89920940635239
C            7.33192452712632        0.95825299888462       -0.07186913996415
H            6.89821113312391        1.15816206141578       -1.04040832089748
C            8.61772528134465        1.37669675971262        0.19679181564219
H            9.19849925489300        1.88858719297563       -0.55667395749242
C            9.17562516392076        1.14227801750072        1.45461960664840
C           10.49326363234080        1.56603838397792        1.73515498734435
N           11.56395155978185        1.90893917442268        1.96202824443746
C            8.42714382139526        0.48705001945308        2.43387768356863
H            8.86404574922869        0.30362799591226        3.40470543880293
C            7.14124226450076        0.07664752096958        2.15388194570821
H            6.57249233139595       -0.44583846705563        2.90859334773991
C            4.19501054935436       -0.02317679859432        1.56656045775638
H            4.41722852331705        0.41795829815629        2.52679532306729
C            2.91079747121378       -0.43292650882803        1.29219963659340
H            2.12670087518868       -0.33630556730688        2.02653372310188
C           -8.08567760917672        0.08809209211769       -0.08601097179954
F           -7.70323493147722       -1.20115284445651       -0.20349529941241
C           -9.43095947108405        0.34436807181313        0.16223313580856
F          -10.27206634033323       -0.69020785400999        0.27463996098710
