70
 energy: -151.498349709245 gnorm: 0.000221070609 xtb: 6.7.1 (edcfbbe)
C           -8.60212760937710       -7.09394597298161       -7.67501964364996
O           -7.67740668012163       -7.73634709993983       -6.82601477453919
C           -6.79729846941833       -6.98458293479679       -6.12905211918331
C           -6.72338942405674       -5.59215850553490       -6.17017062881417
C           -5.77503445719089       -4.94579803195711       -5.40915543879547
C           -4.88169950294434       -5.63777620985534       -4.59241510041338
C           -3.87955758949754       -4.93222575815209       -3.78803630403530
O           -3.12072131017190       -5.42086356406635       -2.99585627338388
O           -3.91047315184200       -3.58384674725747       -4.06936409667121
C           -3.09604439013183       -2.65161531482446       -3.50635016543701
C           -3.18569467422442       -1.38183719419752       -4.08201297994930
C           -2.40611852905294       -0.35452328582821       -3.59884467278840
F           -2.53349147817533        0.85133389346155       -4.15910917857999
C           -1.52364750901534       -0.52406437739482       -2.52888044840468
C           -0.65427703292269        0.59847921815410       -2.07089089571755
O           -0.16532499474399        1.41370749988581       -2.80172446452721
O           -0.49265708167672        0.53505956438244       -0.73861602860314
C            0.32372480410411        1.38847483406100       -0.02878942915440
C            0.80823412068518        0.88465442338366        1.17588901824675
C            1.61838089557497        1.66376171824850        1.97308454978620
C            1.96391064520042        2.96556800735650        1.60873417771573
C            2.84466034011845        3.78076115151431        2.45973387224873
C            3.98197672608158        3.20798545902299        3.02818242543597
C            4.82269095460456        3.95741380331094        3.82521524531069
C            4.53146356599725        5.29445163338506        4.06671692921395
C            5.48088457621601        6.08664199164713        4.92825421235764
F            6.69520983783035        6.21666991032322        4.30066726310002
F            5.06410923639324        7.37342979337794        5.09463116465555
O            5.62937462243544        5.46572068613130        6.12810158295766
C            6.45898032092969        5.97300279378410        7.10534717893552
C            7.22870350300540        7.11946439960830        6.97879247380425
C            8.02313682243737        7.51440060073566        8.04277857744918
F            8.76420062631435        8.61969829112885        7.91740051181065
C            8.06783273845499        6.79341984346038        9.22896505021389
F            8.84147720134044        7.18885791105303       10.24707765694479
C            7.28485858137695        5.64678271250531        9.33005587399431
F            7.30565488752777        4.93089275683875       10.45979688337112
C            6.48567169605607        5.23363626100867        8.28405210900959
C            3.40315876244154        5.87739197112938        3.51036271573278
C            2.56548729575229        5.12137478700028        2.71199843061972
C            1.45040935328683        3.43932580450757        0.40387698819133
F            1.76148409563852        4.68278758122786       -0.00998724925783
C            0.64097773241905        2.68017076251570       -0.42159790127498
C           -1.47185242533400       -1.80192305857348       -1.97352815398234
F           -0.62989832105283       -2.04537575555727       -0.96104743519533
C           -2.23107997770473       -2.85995084673056       -2.43685746412103
C           -4.95736482208163       -7.05333716335407       -4.54798621626326
O           -4.08268139311891       -7.69122927608817       -3.75847962494675
C           -4.11022543765463       -9.09834598937852       -3.68564181934890
C           -5.91419603577421       -7.69760862855591       -5.31930164649898
H           -9.19128320578566       -7.89201474491492       -8.12334699690551
H           -8.09600716620679       -6.53031056509731       -8.46419963843721
H           -9.26350617328059       -6.42670630440829       -7.11461449939494
H           -7.39344362447139       -5.01428661613617       -6.78472812524993
H           -5.72032139690355       -3.86982213811715       -5.44016272735370
H           -3.85883230577641       -1.20887144801064       -4.90539522114045
H            0.54070292772311       -0.12020339072265        1.46016282959792
H            1.98280111092303        1.26963699019691        2.90907969092917
H            4.21859138066134        2.17507183631353        2.82348670565578
H            5.70787858578478        3.51705349947322        4.25727748383730
H            7.24078420258382        7.72318195297674        6.08622681195065
H            5.88476512566860        4.34485660471207        8.37763234900884
H            3.18184000680614        6.91608445678407        3.69924490900164
H            1.68523693298606        5.57826258139594        2.28827731974795
H            0.29021014096325        3.09946676824536       -1.34990798314692
H           -2.13084784939354       -3.82706337407802       -1.97284673238997
H           -3.31541260845730       -9.36546680239431       -2.99164042917566
H           -3.91118234010925       -9.55484728334055       -4.65992374842911
H           -5.06735993218036       -9.46145466980427       -3.29947351972299
H           -6.00899545647897       -8.77055170221011       -5.32014321595783
