34
 energy: -49.232823734431 gnorm: 0.000253194923 xtb: 6.7.1 (edcfbbe)
H           -7.74010581505609       -2.53184111218852        0.35605892810857
O           -6.77160630840377       -2.55917019603050        0.38738758533024
C           -6.28320394091826       -1.34105252387078        0.08614059769646
O           -7.01446956435498       -0.41446269293569       -0.17065901319842
C           -4.81350648279340       -1.27412735871614        0.10675392156451
C           -4.19468189927939       -0.06219365591676       -0.18832315444241
H           -4.81469419021699        0.78919753902101       -0.42497591861845
C           -2.81979009451296        0.05338473684771       -0.17931443681490
H           -2.36934683411360        1.00497627530485       -0.41292574489150
C           -2.03230873036500       -1.05581066112129        0.12964430609545
O           -0.68207624396229       -1.06146718879326        0.17346782572318
C            0.02680398679059        0.13436127652634       -0.09204788084928
H           -0.18339825030107        0.48011405059184       -1.11352931540166
H           -0.27795148894407        0.91911130738656        0.61382835450613
C            1.51439204242902       -0.16051957254090        0.06636181770181
H            1.68909830060836       -0.53443915352369        1.07650677853325
H            1.79096297877651       -0.95091841905286       -0.63312706973687
C            2.36383383804589        1.08202146091152       -0.18458638586134
H            2.17700845370706        1.45113102228554       -1.19582173798886
H            2.06884862586344        1.86909684009963        0.51351264322591
C            3.85413339591787        0.79475123615038       -0.01932221443494
H            4.03874682772854        0.41499053759364        0.98798714991831
H            4.15245065793715        0.01670382941739       -0.72540294653184
C            4.70668627138958        2.04007766140784       -0.25149933189402
H            4.51881817148726        2.42343618161445       -1.25696270923252
H            4.41142502350398        2.81611026355349        0.45834430752803
C            6.19321271370135        1.74684591728773       -0.09120182268622
H            6.40345443252041        1.37864616442302        0.91055563748431
H            6.51244646899138        0.99201729212078       -0.80647166051846
H            6.78102811755956        2.64660289784815       -0.25649862946824
C           -2.65482364374260       -2.27542061799281        0.42357267910402
H           -2.02798702080912       -3.12114326846533        0.65830614608512
C           -4.02463437209018       -2.38485109255363        0.41296010046160
H           -4.49876542709411       -3.32615897668915        0.64125119350303
