79
 energy: -128.196088442238 gnorm: 0.000146940451 xtb: 6.7.1 (edcfbbe)
C           -1.66871337727056       -3.06578005115965       -3.47374841956430
C           -2.67896808228586       -4.00266076629078       -2.82232278909538
C           -3.51019068570879       -3.28716970498632       -1.75808664533229
C           -4.67296961610505       -4.12680472526736       -1.22361604337011
C           -4.24470291017320       -5.38411461173123       -0.46464108552263
C           -3.58101886178977       -5.06266487860927        0.87318971266324
C           -2.92544103818929       -6.27477614325757        1.53771999456871
C           -1.72167810491992       -6.78518333040914        0.74359445485209
O           -0.88385376406484       -5.67677555031116        0.47249549824301
C            0.04735588582883       -5.75354045618889       -0.48296892840617
C            0.45095386793026       -6.94114347874795       -1.07830709964178
C            1.44061239424986       -6.96232921620321       -2.05952545413903
O            1.73805404605486       -8.18670422614520       -2.55471968057484
C            2.74160025955278       -8.29706244777517       -3.53782116844655
C            2.04528172267241       -5.77041492419101       -2.45576253741445
C            1.65319774031582       -4.58847739015997       -1.86556688718995
C            0.66349892556276       -4.54338425472241       -0.88726286255992
C            0.22750216764294       -3.26008987129751       -0.32118075802092
O           -0.75409707710033       -3.05982725840033        0.34486492883359
O            1.10927616220519       -2.26658523494917       -0.64806833208744
C            0.86101680470687       -0.95478978258050       -0.32109395221331
C           -0.39505609791354       -0.36591133005672       -0.42347869909307
C           -0.53780310915383        0.97430736594475       -0.12744854631890
C            0.55914919794956        1.74009834920101        0.26254261047697
C            0.33930759721014        3.17025519635832        0.56666955942169
O           -0.73075334266415        3.72133337778575        0.51854077671907
O            1.49867493121053        3.79173877726871        0.88297732158931
C            1.53278621026724        5.12347741484602        1.24772958340358
C            2.64408158705142        5.84927827998583        0.83038569966658
C            2.77696957449015        7.17377820425623        1.18965381205204
C            1.81074878781667        7.79687370851246        1.97927309749295
C            1.95111050678964        9.20743919833533        2.36001412005406
C            2.41377013920966       10.14773400660321        1.43616792335247
C            2.54394785600298       11.47462524958373        1.78613837422795
C            2.21477870375730       11.87418831362127        3.07686003282191
N            2.35152564654647       13.25619413185975        3.44826045923512
O            2.75152200128253       14.03102578165723        2.60385695575901
O            2.05972544882363       13.56724438746828        4.58463802507110
C            1.75514552135620       10.95399740920994        4.01279754942263
C            1.62346735907768        9.63053861833813        3.65047214380615
C            0.71079123091200        7.05232131351996        2.39924268370075
C            0.56437632242921        5.72643240537715        2.03924032504512
C            1.81619218334052        1.14365032046853        0.35309233765268
C            1.96440899882148       -0.19525211648785        0.06372808007618
H           -1.08082640265034       -3.59480608878279       -4.22110497020493
H           -0.98539886522670       -2.66472919926601       -2.72875668571051
H           -2.17356603546396       -2.23250578975321       -3.95865757697597
H           -2.13799794749970       -4.83627470636910       -2.37102865178650
H           -3.34274215599682       -4.40791267859075       -3.59074417533102
H           -3.92389260979408       -2.37380912751504       -2.19469458514780
H           -2.85798599066999       -2.99520813293878       -0.93472540700803
H           -5.30512491286955       -4.42286941832477       -2.06555851940801
H           -5.27821914943059       -3.50433669943444       -0.56018688669146
H           -3.56542657959786       -5.95649250961192       -1.09555073823351
H           -5.12597224965146       -6.00722526588672       -0.28680472074604
H           -4.33206191737502       -4.65428278754329        1.55251524523708
H           -2.80846839869112       -4.30829465267060        0.73555518102883
H           -3.63920153410943       -7.09416687458497        1.64508915123545
H           -2.58412288893508       -5.98120235936801        2.53112670903651
H           -2.05261190539395       -7.24440632090091       -0.19559518304060
H           -1.17537006546047       -7.54106558502090        1.32461346570511
H            0.02199308772301       -7.88700776624778       -0.79136295325092
H            2.80870925207023       -9.35845604184140       -3.77054931845128
H            3.70841030786034       -7.94652941999381       -3.16425565426925
H            2.47749232290653       -7.74399258397925       -4.44421731766419
H            2.81011749657014       -5.75536724316558       -3.21442673222547
H            2.11458626503907       -3.66482843724424       -2.17707545300842
H           -1.24900942735675       -0.94936833374990       -0.72670905347631
H           -1.50291575841323        1.45226790003885       -0.19765799611075
H            3.39219744703723        5.35946624142972        0.22676022501533
H            3.65027292336530        7.72532968873918        0.87557294883328
H            2.65040958959963        9.83395292851031        0.43116466047450
H            2.89310897511798       12.21234032461307        1.07990528371163
H            1.51161114833959       11.29288965522712        5.00815709140564
H            1.28337188150379        8.90849180747566        4.37672474271069
H           -0.05596277827797        7.52219486165467        2.99639129271292
H           -0.29814133473041        5.16820068945350        2.36427452534146
H            2.66905453329817        1.73105960603885        0.65428692178508
H            2.92805996307005       -0.67613574029997        0.12897896357867
