66
 energy: -114.357531711565 gnorm: 0.000123917067 xtb: 6.7.1 (edcfbbe)
C           -7.39667075585749        0.21724526566551       -4.79894897406133
C           -6.07552049103202       -0.09327418228189       -4.10597753347624
C           -4.94127035159724       -0.26422522173616       -5.11431567136664
C           -3.61994830652033       -0.69532266720040       -4.47659763482011
C           -3.01956371418919        0.37662151090584       -3.56666780725734
C           -1.59948865347982        0.04898528042479       -3.10686744088972
C           -1.55558067565388       -1.11828711750774       -2.11785369966049
O           -0.24440028099359       -1.37861487373248       -1.65475120409152
C            0.64568703431793       -2.03711306168039       -2.42258188645062
C            0.33015343376807       -2.58995157658072       -3.66349362841531
C            1.27614199027084       -3.28541681485826       -4.40590653553307
O            1.03823905349534       -3.84358305108379       -5.61457975889419
C           -0.23979294384351       -3.72096472496754       -6.19337285548184
C            2.57405892494210       -3.43819771874180       -3.90580558677829
C            2.89189340318130       -2.89502383949569       -2.68911071067193
C            1.95698592264250       -2.18771777231327       -1.92482911607373
C            2.44634277198046       -1.64768589361488       -0.64614473499366
O            3.57502476248141       -1.81000512127583       -0.24571714757232
O            1.49631852799656       -0.94921102647011        0.01574908330873
C            1.65653225332614       -0.31244208867867        1.21283251474431
C            0.49888174372531        0.32121027334017        1.67727359041054
C            0.51467070776739        1.00936749054230        2.86620874823902
C            1.69008202725353        1.08402903015347        3.61932208911710
C            1.65178185504503        1.83815240328957        4.88217192770913
O            0.66999790431150        2.35589423670513        5.34612727415592
O            2.88932172701691        1.90416444418138        5.45667549197873
C            3.14386509696448        2.51343335182179        6.64944590906934
C            4.47627050602488        2.88745622291129        6.85667161785507
C            4.84966492549019        3.47671708168992        8.03991276945143
C            3.91527328686669        3.70264705566240        9.05058825770812
N            4.36387433539936        4.31684452904928       10.27843952776688
O            5.46473867261152        4.82624007392559       10.26006966684546
O            3.63462796841478        4.27946223050820       11.24016991538771
C            2.59066962312531        3.32280992858318        8.83493068476579
F            1.65342423434098        3.53031887849603        9.75652107770217
C            2.19899722146122        2.73251123163675        7.64477732031646
C            2.83945785478653        0.44852718032638        3.15433674748035
C            2.82945039260671       -0.24740620715363        1.96115163145349
H           -8.19229281697677        0.34085869721739       -4.06818303967398
H           -7.67379938417677       -0.58903026144975       -5.47472349604026
H           -7.31667511735415        1.13509110697183       -5.37730785777192
H           -6.17961370515611       -1.01060192277090       -3.52167720285041
H           -5.83722235309701        0.71743516739570       -3.41587426869147
H           -4.79288572657685        0.67455089305929       -5.65287397431867
H           -5.23698949633717       -1.01993878501966       -5.84644185264557
H           -2.90725783998454       -0.91699096582168       -5.27599938030692
H           -3.78712902348379       -1.61452911238297       -3.91131734326003
H           -3.65339819711593        0.51548523483487       -2.68988750379995
H           -2.99415280790300        1.32157002382159       -4.11347848726094
H           -1.16617230728360        0.92029921891101       -2.61137272304607
H           -0.97365721084157       -0.17717556082464       -3.97289938278912
H           -2.00623323080461       -2.02270847525929       -2.54030180002250
H           -2.11319060207147       -0.85306657527144       -1.21492388939688
H           -0.66733671186293       -2.48068729035600       -4.05319782232622
H           -0.18082193692885       -4.24208112161709       -7.14732658145415
H           -0.50098093123209       -2.67298135302348       -6.37173057536342
H           -1.01005490242063       -4.19081164366967       -5.57384180596074
H            3.29607881233073       -3.97999242564017       -4.49327251998969
H            3.88641086738774       -2.99717541185816       -2.28303434415416
H           -0.39364511323609        0.25135043599213        1.07644136761806
H           -0.37069910102497        1.50297542905485        3.23657651710407
H            5.19520647230274        2.70522642494202        6.07477265375712
H            5.87121057065148        3.77758308410280        8.21623042071463
H            1.16316400729937        2.46682382396793        7.51217374261359
H            3.74876649201168        0.49684499386699        3.73220371166880
H            3.72317930543513       -0.73650836961297        1.61143351868678
