57
 energy: -104.865920577546 gnorm: 0.000082938329 xtb: 6.7.1 (edcfbbe)
C           -4.16352828296196       -1.50295510920765        2.53153793408738
C           -4.42608142195562       -1.20462025489368        1.05972931055605
C           -3.62185662039313       -0.01688290627341        0.53285548167580
C           -2.12064734152183       -0.28680611543050        0.49019304272265
O           -1.51124811007763        0.82450051908848       -0.14710474295084
C           -0.17875294245816        0.85365658853328       -0.30839210620023
C            0.66411625247790       -0.17545457380147        0.10239751530051
C            2.03853245197346       -0.10125682039482       -0.08602194500163
O            2.74905224556939       -1.21322593981477        0.29984786771706
C            4.01233959279123       -1.12285334009784        0.79887019207260
O            4.55868070551134       -0.07972128386596        1.04944291542741
C            4.60232371779314       -2.45424331186572        1.01513034391618
C            5.86722011106066       -2.52955729996715        1.60617025999596
C            6.46680352522198       -3.74691089965243        1.81455678964161
C            5.82007709763804       -4.92980783493272        1.43509573092578
O            6.49659836547709       -6.07393439533465        1.67956242278592
C            5.91410853438132       -7.30568642254641        1.31987299938010
C            4.55820708946837       -4.85746778074139        0.84545761064417
C            3.95922778967158       -3.63040451973530        0.64001552893327
C            2.61343710728544        1.00899573351382       -0.69393648670018
C            1.78542582327706        2.02982972092850       -1.10180061703143
C            0.40080461713771        1.98368744503749       -0.92938031335520
C           -0.34792301011879        3.14469378325285       -1.44004082875749
O            0.17078679398738        4.08405651498554       -1.99028957641664
O           -1.68276673010841        3.03744422312170       -1.21926686694408
C           -2.62411531489685        3.93008560727242       -1.62672515326235
C           -2.41239892376387        5.04382785292622       -2.44044765461303
C           -3.48332427971537        5.84014178205286       -2.78580671422250
C           -4.77304967867785        5.56528804322530       -2.33851996045331
N           -5.84607122822555        6.44674017819509       -2.73048883731871
O           -5.60871187401944        7.23081868532049       -3.62521200388531
O           -6.90146995958926        6.36096053994912       -2.14823543507812
C           -4.97358217257480        4.44676353038095       -1.52528198622095
F           -6.18694746975435        4.11020575399486       -1.08675455305435
C           -3.91315143507635        3.63776058667663       -1.17655346861028
H           -4.82890793161492       -2.28989519341007        2.87794829483097
H           -4.33969360269392       -0.61677401431123        3.13672277164432
H           -3.14034529805252       -1.83311831806367        2.69140277103756
H           -5.48656784178192       -0.98137409623291        0.92955560882733
H           -4.19927533794972       -2.08977356031415        0.46136332593161
H           -3.80350455459634        0.85777421706867        1.15980724733734
H           -3.94674514139794        0.21736730321171       -0.48273630075337
H           -1.92249711450209       -1.20472464057179       -0.07949952906237
H           -1.71918029012428       -0.40044195787229        1.50411518768213
H            0.27554697015986       -1.06224228090637        0.57542206914210
H            6.35844947740588       -1.61240027891927        1.89239723428553
H            7.44171788402827       -3.82257803057604        2.26882441247343
H            6.63645325622411       -8.06706868909683        1.60894946055078
H            5.73745879876337       -7.36583165318036        0.24164762963168
H            4.97502206734795       -7.47664816098491        1.85490793835857
H            4.03764765170728       -5.75204250984871        0.54207859174300
H            2.98464182857874       -3.58270930720597        0.17990216078271
H            3.67844992408012        1.07058402038937       -0.83767007703490
H            2.19637515906997        2.90563845368286       -1.58011614153368
H           -1.42307470171628        5.28239805310382       -2.79258159425453
H           -3.34129042945486        6.70491458501947       -3.41644289598521
H           -4.07277579832024        2.77128777912186       -0.55649486134307
