60
 energy: -122.474340731849 gnorm: 0.000154434410 xtb: 6.7.1 (edcfbbe)
C            4.02310320827318       -4.13350997469628        5.34362681562927
C            2.66613535868711       -4.23235039950218        6.03036044264606
C            1.83396131118197       -2.97443152159261        5.79425366549312
C            0.46272943137361       -3.02095144559723        6.47562112061171
C           -0.52137084349586       -3.90258806241578        5.69494577056136
O           -0.83080834681495       -3.32323469780170        4.44076628412861
C           -1.37217421920743       -2.03848952983736        4.57767001573313
C           -1.61679658942780       -1.48960113563387        3.19381344018146
C           -2.88114620976135       -1.10278237173851        2.77941647879906
C           -3.05264078816617       -0.60888821980502        1.49859400237305
F           -4.27458455329216       -0.21815005098228        1.12663840175630
C           -1.99122312697226       -0.47175630832435        0.60377106609269
C           -2.21910107388696        0.03473315141108       -0.78226523082635
O           -3.17952426067597       -0.22349612825601       -1.45061864472630
O           -1.17850873849754        0.80288358734710       -1.15248466725152
C           -1.03024640581296        1.37382193077119       -2.39303234807100
C           -2.03747844982901        1.53441354718435       -3.33616906750942
C           -1.74334810202362        2.15043922013680       -4.53860997287195
C           -0.47013658682544        2.63072693724697       -4.82621545569821
C           -0.23011862390277        3.29784437185229       -6.12140123711283
C            0.15774376047673        4.63282731450962       -6.17933059521668
C            0.35319899674951        5.23211191766621       -7.40759704980483
F            0.71659530337421        6.51756925936075       -7.44989525765356
C            0.17355611447071        4.53928490829897       -8.60834938132276
C            0.37832669240910        5.16508756321905       -9.86087317199276
N            0.53883613941941        5.67121200759709      -10.87467892585267
C           -0.22406501995577        3.20238074308933       -8.51617267615400
F           -0.41438666135595        2.50185733757408       -9.63965413558399
C           -0.43367175848233        2.58558514520293       -7.30000511629925
C            0.53487596948906        2.44795342222711       -3.87112457779719
C            1.94779330277190        2.90004172541241       -4.13600121186851
F            2.34320702630967        2.67412376785817       -5.39985921365499
F            2.11050215434851        4.22022652313057       -3.92127339051806
F            2.83822533436487        2.28568896974307       -3.34950882309252
C            0.25778459654293        1.82666700826688       -2.66578117564920
C           -0.73311969477938       -0.86841749192545        1.06050506691452
F            0.32056436752236       -0.79016893295103        0.23776739645370
C           -0.53719455487633       -1.37338520332536        2.33013165975750
O           -0.49953749202204       -1.16107108274967        5.23623379852732
C           -0.17150215100775       -1.62450925127338        6.53259274258850
H            4.60961422201802       -5.03095047139238        5.52453023780619
H            4.58024835644496       -3.27803947006642        5.71915698947177
H            3.89878734921029       -4.01592467269767        4.26957090255811
H            2.81139817104550       -4.37267911602642        7.10422514594659
H            2.13624229682466       -5.10744680680223        5.64998777752715
H            1.68535940719684       -2.83079302763787        4.72271919670687
H            2.38664298409409       -2.11111115275864        6.17180923033383
H            0.56452278631048       -3.40629314884373        7.49410962957554
H           -1.44660380623930       -4.03541642119809        6.27787127595960
H           -0.10085223083153       -4.88195802893332        5.46727677464865
H           -2.32367184874164       -2.10392320528989        5.15224153314058
H           -3.73643200419671       -1.17872081080312        3.43158931431831
H           -3.03558435366096        1.17836653420504       -3.14149513360435
H           -2.52531885808042        2.27998015983706       -5.27095961916654
H            0.30410233059081        5.21551829093777       -5.28396464426026
H           -0.73384121299068        1.55016524111749       -7.27605484606600
H            1.02916316816079        1.67122637262319       -1.92810579350542
H            0.44778374798962       -1.67442118979108        2.64450383178247
H           -1.08208320701918       -1.65377541616568        7.15266806233634
H            0.51610788515833       -0.88351221102149        6.94251329276927
