39
 energy: -55.181770222821 gnorm: 0.000201655666 xtb: 6.7.1 (edcfbbe)
H           -1.86233894267472       -6.60216831109729       -0.27084931804313
C           -2.31912394926689       -5.70631200929649        0.12398295583339
C           -1.63314673490694       -4.51055198752569        0.12560580010183
H           -0.62453468494225       -4.47457607203352       -0.25852345161447
C           -2.21380696833455       -3.35028066473870        0.64101510584236
C           -1.48010960057359       -2.07994343768326        0.63877872458202
C           -0.68703691428564       -1.71381416028810       -0.44378348594482
H           -0.62392846654564       -2.36427932793344       -1.30396621073800
C           -0.00036699595279       -0.51371768553084       -0.46183210370347
H            0.59425945349831       -0.26459584481393       -1.32669900443940
C           -0.08490200441511        0.35359264229513        0.62331155749286
O            0.54238603943817        1.55204783259130        0.71872665518845
C            1.35071200535445        1.99271913262210       -0.35399228528309
H            2.17538042137399        1.28590540603552       -0.52280490953722
H            0.75435497372106        2.06126072121287       -1.27470484369945
C            1.90407406701169        3.36537220315122        0.01217149436273
H            1.06635166858862        4.03952509677498        0.19840091569855
H            2.47145322080604        3.27672450544307        0.94007848156116
C            2.79221920731805        3.92852563432826       -1.09316837889156
H            3.62745117112060        3.24667672417064       -1.27034318061471
H            2.21809201974709        3.99547447505916       -2.02050686539567
C            3.33649020055049        5.31020421786576       -0.73808260012534
H            2.50137114676459        5.99050033695805       -0.55832227432352
H            3.91368268725564        5.24333997919871        0.18651841907754
C            4.21781373803842        5.87172162284146       -1.84690667577282
H            5.06755997794702        5.21708791476888       -2.02779037523040
H            3.65419142090090        5.96349703215740       -2.77281909571851
H            4.59404886398637        6.85506616927860       -1.57565548090209
C           -0.87279009784220       -0.01132061061655        1.71844613640440
H           -0.92493327818348        0.66491940590606        2.55710052423809
C           -1.56098292035842       -1.20242143856920        1.72168019761305
H           -2.15024351505908       -1.47202915878265        2.58554462493672
C           -3.50898776582676       -3.42224392805308        1.15721499665463
H           -3.97781203024924       -2.52883571637678        1.54197409584557
C           -4.20681234695659       -4.61109158099681        1.15812010438789
H           -5.21127082878402       -4.65912541458716        1.55286670904759
C           -3.61459537816785       -5.76434025950189        0.64053802204825
C           -4.32394786671095       -6.98539159550954        0.63948313437999
N           -4.90024099338558       -7.97714184872231        0.63916188468043
