44
 energy: -57.446276978869 gnorm: 0.000100555759 xtb: 6.7.1 (edcfbbe)
H            0.24294196732718       -6.85182291390816       -0.60354908530368
C           -0.16460211470577       -6.01752055657782       -0.05148221160091
C            0.50451907163123       -4.81300631088925       -0.00339879161566
H            1.45162565752071       -4.70756347262191       -0.51153214694354
C           -0.01256187281643       -3.73447063956187        0.71542210524611
C            0.70762726911118       -2.45587797400027        0.76455560048118
C            1.31779511022148       -1.93748416855010       -0.37494547009436
H            1.24128903036637       -2.47099790662952       -1.31137137566739
C            1.99144379110038       -0.73228084147134       -0.32668511776021
H            2.45033762702109       -0.34219467020647       -1.22402251729673
C            2.08745180744896       -0.01449593122594        0.85871302107462
C            2.79046256468961        1.30993716498406        0.91336311116606
H            3.41968727454837        1.35092188783038        1.80579743682790
H            3.43253511747632        1.42600062194984        0.03808495172665
C            1.78940408005539        2.47217252903279        0.96148842402579
H            1.13159973045796        2.34431734169986        1.82398730869598
H            2.33813175115246        3.40718206642273        1.09591458049410
C            0.94477020600550        2.56005289164101       -0.30643291106612
H            1.60177545176747        2.68781855349249       -1.17027484245383
H            0.39787987672758        1.62393830425613       -0.44129650964865
C           -0.04651814546043        3.71962395576406       -0.25276710352449
H           -0.70272941541932        3.59316662448921        0.61182185988768
H            0.49883003061782        4.65706394425280       -0.11779519191480
C           -0.89368390456197        3.80654128785280       -1.51969008580941
H           -0.23770957783065        3.93142225839939       -2.38464288207924
H           -1.43940632190267        2.86923872851680       -1.65272840019897
C           -1.88687164090270        4.96500111840399       -1.47116448412354
H           -2.54099212176678        4.84262024284825       -0.60475989698772
H           -1.34097548004445        5.90257431579741       -1.34268775836319
C           -2.73198851279542        5.04057053707750       -2.73676583224523
H           -2.09877986342803        5.17984189986574       -3.61039565370834
H           -3.30079334657826        4.12289734047052       -2.87052437584941
H           -3.43033174130604        5.87250509476934       -2.68303240836875
C            1.48406833917814       -0.53660095139781        1.99739996751923
H            1.55651467532912        0.00254053402395        2.93135605046462
C            0.79974531420374       -1.73459473982628        1.95328860137164
H            0.35363240148039       -2.13086545533245        2.85403285227845
C           -1.22554839041334       -3.89389624254507        1.38661439500834
H           -1.64494428653944       -3.06111073148543        1.93152620492961
C           -1.90708879995839       -5.09165642223596        1.34189251631559
H           -2.84918082240728       -5.20839350968857        1.85748771715977
C           -1.37859136692800       -6.16402985431214        0.62161395107996
C           -2.07007527639665       -7.39467990239826        0.57354744860964
N           -2.63072514328223       -8.39439604898325        0.53403694825291
