30
 energy: -49.908527821075 gnorm: 0.000546778067 xtb: 6.7.1 (edcfbbe)
H           -0.63154223120871       -5.02590122657737       -0.72546050244930
C           -1.11629742560210       -4.14096775944781       -0.33959131250281
C           -0.45142989055049       -2.93356047340982       -0.30852867703471
H            0.56748458616686       -2.87745904406725       -0.66105117656039
C           -1.06905333664724       -1.78735860585079        0.19424479535806
C           -0.36075108809934       -0.50199980270922        0.21433749912518
C            0.44821090666073       -0.11685084508670       -0.84962066096377
H            0.54645470330343       -0.76455974741983       -1.70798111600513
C            1.10959957652073        1.09815333054488       -0.84994353947785
H            1.71921167384838        1.36152297106641       -1.69980516028334
C            0.97900006401444        1.95793368623343        0.23442591255467
O            1.57994689548388        3.17710654533154        0.34739960824940
C            2.38951625391311        3.63496190529431       -0.71001214672717
H            3.24769566125283        2.96771772245830       -0.86992153065783
H            1.81627196549338        3.70759539635089       -1.64450669130960
C            2.89045994047240        5.01963382472837       -0.30981937722268
H            2.05701943048040        5.71792053174923       -0.18995833992620
H            3.47665964771962        4.97009652955208        0.61243399758362
F            3.70575897127663        5.51425224994383       -1.29234188232422
C            0.17680027244711        1.57654336738276        1.31140694750904
H            0.09051735444906        2.25040749869242        2.14874187719354
C           -0.48500330827534        0.36990698837466        1.29721425031904
H           -1.08889736597137        0.08670157062179        2.14617253213846
C           -2.37701095108198       -1.88509556500105        0.67155679936221
H           -2.87360526193348       -1.00265991827402        1.04716900167417
C           -3.05398456483778       -3.08581334134678        0.64214052750291
H           -4.06898189721374       -3.15389709148757        1.00532342809997
C           -2.42683500185808       -4.22410585860745        0.13342496317970
C           -3.11741440599550       -5.45565416752001        0.09406757779037
N           -3.67971117422825       -6.45448067151931        0.05847239580437
