51
 energy: -94.318959026130 gnorm: 0.000211768560 xtb: 6.7.1 (edcfbbe)
C           -4.15851279511167       -0.36517149185765        0.24897368810416
C           -2.68009093792271       -0.59953972109962       -0.01824649959454
O           -1.95672540106621        0.36423438719218        0.72788578102934
C           -0.61332451620246        0.36392328032755        0.69753381561964
C            0.13666077974697       -0.52638000885265       -0.06415843424872
C            1.52652967852575       -0.49714399842045       -0.04622711283310
O            2.13841090656524       -1.44354978907866       -0.83627331607387
C            3.33046585887231       -1.21355190535773       -1.44843993384679
O            3.93867043422223       -0.17721604299056       -1.37041607561982
C            3.75782824935559       -2.37573049264523       -2.24653138964996
C            3.02762411498680       -3.55911989238075       -2.30496191498192
C            3.45831214891594       -4.61531158147950       -3.08347809429618
C            4.63585096714550       -4.50493381112342       -3.82238622008642
O            5.14313539814960       -5.47024205484702       -4.62122887671218
C            4.44985786505429       -6.69041815024470       -4.74764682801188
C            5.37529959111017       -3.31737821090274       -3.75785695881060
C            4.94196496323341       -2.27056774760878       -2.98250321929751
C            2.20731610235969        0.40354841109414        0.76346008501156
C            1.46862790266026        1.29252432938307        1.51321185788850
C            0.07457438584338        1.31017124030579        1.48913775363177
C           -0.57432847863494        2.35533020148270        2.30368837869562
O            0.01443168533533        3.04320162629643        3.10004823762820
O           -1.89968584965435        2.45816165915036        2.05009535822602
C           -2.71548917560476        3.41708748582150        2.57980009755869
C           -2.28804612347261        4.64616874357694        3.07910727025981
C           -3.22248089116937        5.55576244468996        3.53262474064143
C           -4.57560774250468        5.24412591879746        3.48621633155252
N           -5.54306478780300        6.19942083426080        3.95377096100307
O           -5.13197670897727        7.25716752826532        4.38219277512600
O           -6.71541657745232        5.89153099511920        3.88946666606278
C           -5.00903424065782        4.01903605502452        2.98652444357731
C           -4.07946297939279        3.11129366767228        2.53533886111277
H           -4.75287380957301       -1.08580258710972       -0.30523471006003
H           -4.43562917061884        0.63848850601735       -0.06159812929813
H           -4.36524514295720       -0.47565995250777        1.31003770946063
H           -2.46628964831249       -0.48554184460356       -1.08918208364683
H           -2.39295043428267       -1.61181346765505        0.29622469371798
H           -0.33593992176028       -1.25935661382333       -0.69719643512112
H            2.11567100983570       -3.65249678275688       -1.73640045479463
H            2.87148318779978       -5.51986970585101       -3.11042452827656
H            5.03877504538495       -7.29201770875458       -5.43785118994305
H            3.44825012160275       -6.54105204057017       -5.16228853281551
H            4.37505674672748       -7.21056403737412       -3.78789483928380
H            6.28484311146815       -3.25168661645278       -4.33329054269982
H            5.50239828016107       -1.34994724916039       -2.92895715094741
H            3.28300443504608        0.41938874929664        0.79170779439553
H            1.96386065701522        2.01504662693102        2.14372688358505
H           -1.23842615639549        4.88459720141023        3.11754007001089
H           -2.91643223962434        6.51471972453193        3.92201278978431
H           -6.06609077006069        3.80309844389805        2.96176838033885
H           -4.37574912792761        2.15404544497360        2.13857804692820
