48
 energy: -95.368118173723 gnorm: 0.000380242455 xtb: 6.7.1 (edcfbbe)
C           -4.81072913261705        7.63442243729668       -2.14933221328534
O           -5.04316875068225        6.92581368257469       -0.95358253558327
C           -4.32355315349762        5.81095058358648       -0.69846372355117
C           -3.34001793765400        5.28468126307739       -1.53578466829012
C           -2.66522273224606        4.13541474643839       -1.17464590391259
C           -2.95525860211941        3.48790213011346        0.02301507806997
C           -2.26454744375658        2.26081294831972        0.45332187490186
O           -2.48488681946160        1.67704503858360        1.48356468604361
O           -1.36004552607148        1.84937474484781       -0.47563849257551
C           -0.55081101794563        0.75388214152217       -0.29253047900232
C           -0.08695622259728        0.31888189637859        0.94407724043521
C            0.75328731559054       -0.77268978085443        0.98852061042864
C            1.15942120702351       -1.43938612315049       -0.16628697624845
C            2.06551664966776       -2.59492084122990       -0.09530827638391
O            2.63601922949641       -3.12069466318388       -1.01007950509438
O            2.16873059568971       -3.03578627183591        1.20334190045267
C            2.97636678353295       -4.06055987101330        1.59022212059225
C            2.61757455922046       -4.68524703178524        2.79065444991963
C            3.38816759111115       -5.70392025036991        3.29408293351499
C            4.53550877192720       -6.13236684343506        2.62474040585172
N            5.30680874640183       -7.20782484725779        3.20139709684435
O            4.88921872166875       -7.68391147543541        4.23683065301663
O            6.31088472798553       -7.56742118222114        2.63432535973196
C            4.88632909355642       -5.50001119520312        1.43123407432216
F            5.97248039675507       -5.85607682544376        0.74972362786551
C            4.11955760641017       -4.46949523642174        0.91329688250430
C            0.70042202385700       -0.98116099340089       -1.42439600380226
O            1.11090447728588       -1.64697513499843       -2.51145957970226
C            0.66698398101040       -1.23978836261786       -3.78581931151827
C           -0.15690327677573        0.11369391281882       -1.46182140117293
C           -3.94115542317568        4.01828960937219        0.86092732157106
C           -4.61464744435489        5.16110078147296        0.50753727139232
H           -5.50049247391128        8.47640192659079       -2.12977873563815
H           -5.01905500711001        7.01681036517525       -3.02825862947543
H           -3.78399139283989        8.00935695449000       -2.20014934690660
H           -3.09445192422901        5.76497100870039       -2.46973447979728
H           -1.90463453576278        3.73641632362337       -1.82727811180132
H           -0.38496132387692        0.81704731303953        1.85035627036473
H            1.11770004484367       -1.11855206383354        1.94220443914189
H            1.73098370527143       -4.35171703988988        3.30467432805796
H            3.12552436733269       -6.19907464181146        4.21659380737677
H            4.42146296248391       -4.01361986955211       -0.01514450535919
H            1.13397133971548       -1.92960125474435       -4.48626896268105
H            0.98690143987692       -0.21879137474981       -4.01459084250324
H           -0.42120929749458       -1.31300644161547       -3.87424413284340
H           -0.53846593608263        0.49647697127032       -2.39405408229233
H           -4.15857334215083        3.50973113589657        1.78747184355966
H           -5.37700762130038        5.58311170086609        1.14254662346429
