40
 energy: -89.353261713474 gnorm: 0.000279299494 xtb: 6.7.1 (edcfbbe)
O           -1.53037553826254        0.28714182004028       -3.24710250881968
C           -1.46693963606847       -0.15345669480091       -2.13452371614786
O           -2.42670332260041       -0.93837081053645       -1.57297696691731
C           -3.61706935247164       -1.21570278739420       -2.19942347804638
C           -4.26409473693491       -0.33725824386467       -3.06451244027737
C           -5.48983183671019       -0.68933847483107       -3.59396280236242
C           -6.06524445056968       -1.90761565431463       -3.25640630653863
N           -7.34820078263533       -2.26570606451531       -3.80603194644218
O           -7.88410530621985       -1.47166518679015       -4.54837597860184
O           -7.81404890448032       -3.33979753805955       -3.49023495944669
C           -5.42457032518676       -2.78627279816831       -2.38877737768232
C           -4.20125677673466       -2.43797432749189       -1.86166731164192
C           -0.34816867661246        0.04655925218735       -1.18279573991694
C           -0.33285813445407       -0.56503177747966        0.07376360687605
C            0.70372809937711       -0.35564183224498        0.95373643629528
C            1.76081509530803        0.48334100552023        0.59973811329414
O            2.75344545500533        0.60732795847419        1.54149597936993
C            3.53973420345332        1.69602388621554        1.65094148758441
O            3.50581413408385        2.66030762175644        0.94274455420302
C            4.45401559287534        1.53882929086170        2.82153807348604
C            4.03173945509782        0.99532479593708        4.03443068841952
F            2.76596567061064        0.57340479430659        4.16289670643104
C            4.86969225984099        0.90347330224601        5.13052032856796
C            6.17373537164440        1.35588427258918        5.02471753913782
C            6.63472565273279        1.89626597986250        3.83696564535375
C            5.77389672179984        1.98732700280575        2.75781388760872
F            6.23656110791355        2.48848145609877        1.60969836657483
C            1.78272532660906        1.09685208240662       -0.64387797474901
C            0.72978833131940        0.87072366696412       -1.51506153629360
F            0.77668253176371        1.47729564985440       -2.70066127328135
H           -3.81391705253768        0.60588202955322       -3.32556710865970
H           -6.01316760461929       -0.02716777521215       -4.26655799352888
H           -5.89558080875267       -3.72579397679416       -2.14398313267452
H           -3.67958771736786       -3.09606193962813       -1.18528325698115
H           -1.15261979814332       -1.20695112191696        0.35202569421578
H            0.71761406788228       -0.82190714704462        1.92558556570004
H            4.49131530547694        0.48331289681877        6.04835968044455
H            6.83451542243068        1.28684305911049        5.87416944041046
H            7.64738580590536        2.25080179839630        3.73333458492183
H            2.58445515023228        1.75032052908226       -0.94668256988610
