66
 energy: -128.802945122220 gnorm: 0.000199139483 xtb: 6.7.1 (edcfbbe)
C            2.46749108233630        5.05722543737357       -7.05220035715735
C            3.42709853520594        5.48583481140394       -5.94807003261191
C            2.96319457158148        5.07301102761236       -4.55078950757078
C            1.69508503579467        5.79439136529416       -4.09826827275060
C            1.33871466546249        5.43938745350998       -2.65688719370666
C            0.07496656033655        6.14973466050531       -2.16167526770102
C           -0.04186501881963        6.06323191817237       -0.63446305647431
O           -0.26950091510985        4.73080244004274       -0.21531370232961
C           -1.42122982934599        4.19587189111773       -0.79837467250972
C           -1.61742036266149        2.77831536326908       -0.31552293054837
C           -2.41086706069553        1.90783288206287       -1.04907656021786
C           -2.60428498582856        0.61917876459371       -0.58983101212903
F           -3.35334722652794       -0.21395772218008       -1.31747279859001
C           -2.01706247499990        0.15223856050944        0.58689053331675
C           -2.27004312781769       -1.23442491307324        1.07586725894630
O           -3.33364205769027       -1.78463064431136        1.04990096256804
O           -1.12003539487165       -1.76741406666318        1.53334198797563
C           -1.04214391693658       -3.00760711733440        2.11966120478435
C           -2.09103371845708       -3.64435421277653        2.77116347780563
C           -1.87255563302341       -4.87432164303951        3.36208779015188
C           -0.62486202996660       -5.48972825446971        3.33678001039482
C           -0.45748446028331       -6.79379617215593        4.00805350379793
C           -1.23594540690114       -7.87279242851070        3.59794471795086
C           -1.10047864101698       -9.09245186015876        4.22838103386083
F           -1.84946105353844      -10.12157155641737        3.81697459647501
C           -0.20988988452612       -9.28170282622010        5.28903411732085
C           -0.08408742512529      -10.53469818574518        5.93440450739396
N            0.01303599227032      -11.54701087719131        6.45918546475421
C            0.54539963944181       -8.17517028045079        5.68827415841267
F            1.39691366987387       -8.30718033131479        6.70992324407145
C            0.43200505842795       -6.94746264737929        5.06713616532364
C            0.41594004988318       -4.84135625142949        2.66510488623094
C            1.77993785961985       -5.47186973404140        2.55056454779272
F            1.72942577929878       -6.79824860402999        2.34418973636470
F            2.49374424984627       -4.96345630245374        1.53901832058688
F            2.52446346504384       -5.29072982479125        3.65814236305109
C            0.21016481807531       -3.61077518030922        2.06413467045576
C           -1.22026515523353        1.05538156650351        1.29009209330530
F           -0.65643180423289        0.66981114350910        2.44326468514049
C           -1.01976582853302        2.35305874469074        0.86164972255633
O           -1.36454092630232        4.19113720051574       -2.19585941118326
C           -1.19369865862011        5.49415356415834       -2.72237004325476
H            2.88745950342165        5.29144172366139       -8.02771956861423
H            1.51364050202943        5.57089707713620       -6.96446410111527
H            2.28837598226224        3.98527348029756       -7.00508587570063
H            3.55548039135840        6.57031186116817       -5.97954105890793
H            4.40341829894950        5.03312939442094       -6.13598963766226
H            3.76364453462995        5.29014752759964       -3.83904921968846
H            2.78971302805204        3.99482250860428       -4.53282509750841
H            0.87005373282249        5.52400375892762       -4.75741786766257
H            1.84733036678010        6.87407969154956       -4.17688222111465
H            2.17372273088016        5.71485256911646       -2.00850014042541
H            1.19046682516063        4.36165269953150       -2.56647577790422
H            0.09810646764019        7.20284243287220       -2.45622443843874
H           -0.87044060319504        6.70176441602567       -0.28661136838112
H            0.88010480454208        6.37267657974757       -0.14044015737548
H           -2.30077478038471        4.81154432972679       -0.48020320455912
H           -2.86230689216618        2.22429729080792       -1.97466575855521
H           -3.06813045614264       -3.19240883128011        2.81304966064186
H           -2.68456865621565       -5.36697866626300        3.87441248752696
H           -1.93097613052600       -7.77442162901608        2.77934725354879
H            1.03265659860809       -6.12522242786512        5.42176655047644
H            1.00990692849287       -3.10751973486095        1.54417599987686
H           -0.39562727483915        3.02232686485080        1.42979722128567
H           -2.07295895956186        6.10941721810675       -2.47182370350127
H           -1.14395497801780        5.36717270666646       -3.80359091822418
