48
 energy: -91.150849167457 gnorm: 0.000156488612 xtb: 6.7.1 (edcfbbe)
C           -4.93698911100318       -7.20721746519581        0.20607139062705
O           -4.19016330472091       -6.93716201420774        1.36924996949863
C           -3.40314638574619       -5.83896458562843        1.41397239625893
C           -2.69965747327730       -5.63972605825155        2.60672931033992
C           -1.88240297488369       -4.54702582206814        2.73149263818817
C           -1.72560548405456       -3.61670387568125        1.69851764841460
C           -0.82211231533496       -2.48774157770241        1.97771697314735
O           -0.24633693170473       -2.34474295022720        3.02978447753717
O           -0.69854484556096       -1.64821270519160        0.92525369912320
C            0.02621123312455       -0.48763756066224        0.93039889349353
C            0.27014374556772        0.04476086573223       -0.33871423835574
C            0.95358427811483        1.23034439999441       -0.47997212500826
C            1.40754943433364        1.91013387336832        0.65178959068419
C            2.13543498958906        3.18912025737391        0.56843424416724
O            2.51154065328023        3.83058038649755        1.51439618443892
O            2.35168545631098        3.54893975094188       -0.72716127140181
C            2.95134517391901        4.72482775232923       -1.09357499624465
C            2.90248366029641        5.89897748391879       -0.34554464195839
C            3.49836436889026        7.04227653392353       -0.83934694652432
C            4.13346586719863        7.01502116701084       -2.07457590590248
N            4.74629323895298        8.21231781125515       -2.58670607503986
O            4.68517063750128        9.21337974097917       -1.90515904443810
O            5.28552020127517        8.14853382346663       -3.67158990655279
C            4.18035902351070        5.84632111155231       -2.82857341076032
C            3.58952706934943        4.70497413728707       -2.33650309986352
C            1.15881994909970        1.37551233397057        1.91490243955081
C            0.47296056484437        0.18679108217220        2.06357657033069
C           -2.43143770012159       -3.81623127347273        0.49534786972061
O           -2.27074386637667       -2.91051512609574       -0.49280922251180
C           -2.95915585284115       -3.07520558656752       -1.70969467297540
C           -3.26187466278865       -4.92871838213787        0.37272384063867
H           -5.48374553779775       -8.12495243527093        0.41560210676478
H           -4.28795200421252       -7.36485930385361       -0.66101756731764
H           -5.64959190600302       -6.40491948684242       -0.00946564044224
H           -2.81882562599198       -6.35411286680142        3.40390994777007
H           -1.33089789225878       -4.37207210538992        3.64231697547176
H           -0.09410790560197       -0.49831885055519       -1.19633099750088
H            1.13796474205280        1.63706918685737       -1.46163801742883
H            2.41164962335571        5.91589579911662        0.61302550286055
H            3.47512128096709        7.96451692162655       -0.27923480153031
H            4.67999709907833        5.85376575901324       -3.78502350838286
H            3.60766048384091        3.78332040598477       -2.89596071001233
H            1.51288192929776        1.91255461979704        2.78163467023025
H            0.29205735039346       -0.21660875305479        3.04565979991695
H           -4.04433491125411       -3.05784432149321       -1.56746921294139
H           -2.66915874567493       -4.00108628087596       -2.21672125213094
H           -2.66790786360010       -2.22509296120017       -2.32458775752329
H           -3.80309875333746       -5.08429285574332       -0.54510211644473
