45
 energy: -86.861819215388 gnorm: 0.000195174660 xtb: 6.7.1 (edcfbbe)
C           -7.20025795262359        0.91796658021882       -0.33138682960814
C           -7.40294998951287        0.28694304984517        1.03970172306656
C           -6.56672753505052       -0.98855595909990        1.21899479393352
C           -5.09885220399572       -0.68756947882935        1.18732991571983
C           -4.47993894613918       -0.10702559100869        2.29172265192829
C           -3.13589227149268        0.19679436249799        2.26759384313464
C           -2.37420421532656       -0.07823653167594        1.13061431748893
C           -0.93762697088071        0.24192120931047        1.16830955733837
O           -0.37583254692104        0.78889744077035        2.08071337463447
O           -0.30306041522895       -0.19542505312354        0.04143118421970
C            1.04293364912460       -0.05706859095876       -0.15230092979234
C            1.63305386383987       -1.01318366472614       -0.97630204126043
C            2.98216218891773       -0.93735134988996       -1.24478491583506
F            3.52281754569544       -1.88926096801339       -2.02356898215569
C            3.80770771022791        0.05659216249846       -0.71482269116962
C            5.25395455530421        0.09810782963773       -0.98025183393671
C            5.73973839029074       -0.09933587932335       -2.27135957497991
C            7.09942194903848       -0.07269093009803       -2.50081698909412
F            7.54900571713587       -0.25776868703122       -3.74752778202324
C            8.02234026617313        0.14437262442510       -1.47331255038454
C            9.41501194416549        0.15944319347042       -1.71988725758632
N           10.54189207860423        0.16990304799518       -1.92011331047282
C            7.50424582783903        0.34189830448976       -0.18971641933886
F            8.35058067092561        0.54740539143709        0.82582600300074
C            6.14887970723927        0.32340039448579        0.06418286612893
C            3.16835850459590        0.99612491130587        0.09440946305239
F            3.89063453852462        2.00542669902358        0.60606699497156
C            1.81591391741576        0.96919999969108        0.37658183541489
C           -2.98757347355377       -0.65335275446114        0.01891682200208
C           -4.33539594926949       -0.94995067910852        0.05394317483171
H           -7.82064857941116        1.80489101503551       -0.43489566654592
H           -7.47142759329348        0.21768199557545       -1.11859319355395
H           -6.16102130471330        1.20761408450042       -0.47050170351751
H           -8.45707582551730        0.03443694690941        1.17096100704729
H           -7.13142555910522        1.00650131501053        1.81456284159980
H           -6.81962538302825       -1.69551411319937        0.42690122578699
H           -6.82200967975894       -1.44292509998980        2.17896314435395
H           -5.06136470033318        0.10027425184154        3.17819241563326
H           -2.64823641921185        0.64238790765404        3.12124587581202
H            1.04080496146324       -1.80999627710828       -1.39513646285282
H            5.07413516858407       -0.26747846874804       -3.10240776841251
H            5.80532679192665        0.47410985643187        1.07478358477792
H            1.39415493699023        1.73029098406821        1.01138912118031
H           -2.40670981707506       -0.86318861632391       -0.86544239390173
H           -4.80522755258712       -1.39669686540955       -0.81021844067473
