33
 energy: -53.075259995511 gnorm: 0.000205621089 xtb: 6.7.1 (edcfbbe)
H           -1.01874899023321       -5.51527580807833       -1.03104162647571
C           -1.40775851865582       -4.66201697377039       -0.49473422118111
C           -0.72558307387134       -3.46393034219581       -0.49177826796169
H            0.21344225540614       -3.38421942923444       -1.01904864758895
C           -1.21827706761174       -2.35961069890960        0.20541126007280
C           -0.48896100051442       -1.08610301277382        0.20293805813275
C            0.12475734504390       -0.61661808285809       -0.95348892373096
H            0.04812999524316       -1.18616389182808       -1.86802300999046
C            0.80750848527245        0.58622192361674       -0.97040059021078
H            1.25976025569706        0.91730406329235       -1.89202315520225
C            0.90008253444748        1.34833495359058        0.18919552157133
O            1.54579623634024        2.54072266311972        0.29479535573260
C            2.18677419783261        3.07730867736783       -0.84355979453456
H            2.96223852218264        2.38768577589063       -1.20352439569018
H            1.45616949211726        3.23991330983270       -1.64879374464269
C            2.82513804323430        4.40165037503418       -0.44108250214948
H            3.50994253635776        4.23455558624533        0.39151817625123
H            3.39178280867954        4.79997041150619       -1.28397871185194
C            1.76677682450015        5.41148879226277       -0.01704410453853
H            1.06373849712680        5.62281011151583       -0.83011578395731
H            1.22579866333674        5.06721632903831        0.86871064164860
F            2.35998588073029        6.60549110975766        0.31105466592447
C            0.29202543026860        0.88149805549665        1.35665956162298
H            0.37672050171252        1.47794019235834        2.25123315726316
C           -0.39415497649046       -0.31123395966574        1.36010161997159
H           -0.84226548241564       -0.66260222594145        2.27748554655452
C           -2.41990840156149       -2.48913367445173        0.90375420511119
H           -2.82188085360611       -1.63770516186438        1.43242677531998
C           -3.11363592604484       -3.68057321446528        0.90512817128006
H           -4.04673315332859       -3.77312850184425        1.44149066786466
C           -2.61050695637544       -4.77761480588589        0.20401462154993
C           -3.31703086293094       -6.00067365299750        0.19985295566327
N           -3.89113324188695       -6.99348889315986        0.19286651817005
