48
 energy: -94.545887827458 gnorm: 0.000231620709 xtb: 6.7.1 (edcfbbe)
C           -1.91821712806199       -0.19849029005437       -2.30681597542072
O           -0.76526454263104        0.61233211705057       -2.21815216600360
C            0.07779465780551        0.45087216672938       -1.18347378332416
C           -0.13555016422888       -0.49366415669748       -0.17852931602612
C            0.75896678506764       -0.62412922176683        0.87145079244386
O            0.62464503213472       -1.51631819631229        1.90620768460781
C           -0.52698724502620       -2.14194554087811        2.24820042561106
O           -1.57813692410594       -2.01581472053637        1.66801474766661
C           -0.33910426959813       -2.98287825927812        3.44347242177751
C            0.90135497612431       -3.14557644172650        4.06552796023810
C            1.00942831532458       -3.92885399835252        5.19036273805867
C           -0.11445240086060       -4.56564033686695        5.72394522158465
S            0.15321412020687       -5.52583577174961        7.16902185873132
C           -1.49825016687554       -6.13214397751234        7.61745469800847
C           -1.35092156914228       -4.41224957636756        5.10351242487489
C           -1.45545119392138       -3.62849444932804        3.97434058353610
C            1.91125468736032        0.16333186487339        0.92137206740930
C            2.12979335950149        1.08769372176998       -0.06893629121759
C            1.22791118297224        1.26561461592388       -1.12228558735382
C            1.56761804256140        2.32520303867303       -2.08691070516324
O            2.60820787453007        2.93468364639681       -2.07024672915782
O            0.57360285895883        2.54180508336073       -2.98429198845224
C            0.57477467611043        3.50492582808445       -3.94449420709819
C            1.50567855390524        4.53568338241161       -4.07910324182735
C            1.34787417804468        5.45826324134933       -5.09067714762162
C            0.28055795671978        5.39134577307894       -5.98312851047721
N            0.17191726389458        6.40027280098981       -7.00959722835425
O            1.08681653772913        7.19248588250773       -7.09620815206603
O           -0.81165063746052        6.40411028961416       -7.71144316101434
C           -0.64353332762279        4.35202057862836       -5.84103062841123
F           -1.68044062038443        4.21801172026695       -6.66715008223835
C           -0.49715759048520        3.42048107505494       -4.83468428837939
H           -2.43237418424565        0.12679529780923       -3.20966172821439
H           -2.57626321037411       -0.05824533486652       -1.44500759737720
H           -1.65853530560855       -1.25665458267721       -2.40118074580599
H           -1.00988488562480       -1.11964453356894       -0.19919890526882
H            1.77258740802002       -2.65550365815423        3.66134974164847
H            1.96260207031373       -4.06036566852338        5.67940331940799
H           -1.35948449258953       -6.70431883043183        8.52959383001908
H           -1.88479958570669       -6.77744698406577        6.83426030953499
H           -2.16214166450685       -5.29380371940520        7.80632444301473
H           -2.23224768724126       -4.89645139541241        5.49142415279166
H           -2.40854805520408       -3.49889367310340        3.48421932268480
H            2.60178811796489        0.03612892454951        1.73844217501463
H            3.00716748767908        1.71568747178679       -0.05370103221977
H            2.34050740205466        4.60940876769099       -3.40287196945071
H            2.05563973524711        6.26470459620973       -5.21107837300270
H           -1.21228642872673        2.62152143282742       -4.72803137771806
