57
 energy: -73.368808088949 gnorm: 0.000136385984 xtb: 6.7.1 (edcfbbe)
H           -0.78265349732990        3.92271339311573        1.76540401179770
C           -1.05059385409437        3.14528700395921        1.05821735810709
N           -0.39666347561623        2.00827383671540        1.18167154707987
C           -0.69844928081517        1.02621050050198        0.33049392711039
C            0.02334753373089       -0.23540300254815        0.45390599834388
C            0.97378274698730       -0.41514687592564        1.45510120284757
H            1.16649588995378        0.39721871766523        2.13813211422314
C            1.65997088021134       -1.60741780510722        1.57835366599239
H            2.39009190855835       -1.71530707716189        2.36535563244341
C            1.40679203433991       -2.65137135718983        0.69088734371970
O            2.01810938369774       -3.86040501961693        0.71223747340654
C            2.97203169826889       -4.13795859207060        1.71791415934294
H            3.81457464405352       -3.43635102077761        1.64201096634954
H            2.51464903065249       -4.03385378044734        2.71160742377573
C            3.46226957991839       -5.56815546137198        1.51402271676011
H            3.83466916369579       -5.66247028845601        0.49270231111077
H            4.29058973737954       -5.75424763878958        2.20021805614283
C            2.34911123408093       -6.58727455822632        1.74555790065549
H            1.99879083002575       -6.51185620817229        2.77799584462721
H            1.51131713867178       -6.34422393469472        1.09014570517930
C            2.81441619197796       -8.01444229943755        1.47100143687581
H            3.16107867971608       -8.08819821671039        0.43768295979257
H            3.66052950788198       -8.25194991615572        2.12076208097883
C            1.70070228114211       -9.03332044256992        1.70069848730828
H            1.36133207452396       -8.96955368270465        2.73714368900908
H            0.85133079599279       -8.78747241214322        1.05951616737138
C            2.16255947007559      -10.45509485580655        1.40579961956010
H            2.48302058393622      -10.54461150087726        0.37004651334181
H            2.99928218933993      -10.72548658567982        2.04646981805931
H            1.35582024527739      -11.16386385857459        1.57764240630661
C            0.45303922146442       -2.47247634707505       -0.31725994932116
H            0.27084383409486       -3.29120286185641       -0.99577358871055
C           -0.22817181554237       -1.28494592470331       -0.43322192900820
H           -0.96500140503105       -1.14348239334282       -1.20775024526205
N           -1.62244392688616        1.12312546329006       -0.62763836090010
C           -2.26998424816674        2.26395747553430       -0.73753963067511
H           -3.01751181505243        2.30833966219391       -1.52197544153142
C           -2.03177649257195        3.35641413662712        0.09338286798882
C           -2.73989900412040        4.66183076667971       -0.07672116948597
H           -3.77547934239685        4.48186030784956       -0.37530241801647
H           -2.74348503627399        5.20805045958885        0.86915321889054
C           -2.04863670827137        5.51040750554649       -1.15128006807881
H           -1.01862055778193        5.70778042469018       -0.84449808929799
H           -2.01187244319563        4.94382294348391       -2.08493220999898
C           -2.77511692349088        6.83158603805858       -1.38671811962416
H           -3.80717508871743        6.62794880418966       -1.68287243269858
H           -2.80581526965917        7.40020726393910       -0.45409713537054
C           -2.09704246873857        7.66907881812711       -2.46815260925114
H           -1.06847210412193        7.88293017756884       -2.16791886437238
H           -2.05641434043823        7.09425312400397       -3.39655259545278
C           -2.83129120030024        8.98327303537361       -2.72291582982107
H           -3.85973290055404        8.76906163135021       -3.02294889146458
H           -2.87109325814662        9.56015179275149       -1.79602380068614
C           -2.15044210378676        9.81097952670400       -3.80594208068249
H           -1.13004771472052       10.05275430112766       -3.51637727168274
H           -2.11749520338067        9.25938208882192       -4.74306325765290
H           -2.68912703045082       10.74065471873932       -3.97373863545495
