60
 energy: -108.033118334547 gnorm: 0.000089048577 xtb: 6.7.1 (edcfbbe)
C           -3.62551126695103        0.25236436171043       -1.47819434165716
C           -3.73096632587460       -1.12704096199001       -0.84023301667029
C           -3.39972233299555       -1.08422804630288        0.64922626238522
C           -3.36974037222429       -2.47790337046622        1.27293585576867
C           -2.92777215702271       -2.43587899559378        2.73324623438661
O           -1.61844498796638       -1.89828044981262        2.76207471422064
C           -0.97039018532940       -1.75352272764786        3.92891967765065
C           -1.48240871550727       -2.17417818261374        5.14831168601151
C           -0.76673338456846       -2.02244618948418        6.33580672057819
O           -1.38678930508748       -2.48434510976494        7.44578817960431
C           -0.72651812883595       -2.37782511501988        8.68690629446092
C            0.49446082847361       -1.42858842945076        6.31077631151048
C            1.00234742713788       -0.99927569766592        5.10580788002499
C            0.30526197606032       -1.14135848654173        3.90665705560392
C            0.96543844739263       -0.60952889783661        2.70532351679783
O            2.04393557643428       -0.06558206487962        2.71827271280987
O            0.24142695741175       -0.80919413056416        1.57813357945300
C            0.59468880065991       -0.32710568885156        0.34811816990095
C            0.05591078472279       -1.02135992105322       -0.73780951892916
C            0.29775562575625       -0.59081928178882       -2.02103065328513
C            1.09375580023217        0.53535790354303       -2.24619132740257
C            1.34232889750413        0.93780191689025       -3.64057477519926
O            0.82593892839523        0.43566634190822       -4.60433119040676
O            2.26490087044712        1.94111292930714       -3.70288672627149
C            2.70267062794643        2.51433616639865       -4.86092563288292
C            2.03064532260764        2.48479525027447       -6.08242657526427
C            2.57798096045813        3.13366108834632       -7.16858410243571
C            3.78688825783013        3.81735472732325       -7.07469176104019
N            4.31286782168619        4.46111274163962       -8.25613234168892
O            3.54436340615989        4.60906542715289       -9.18243917700655
O            5.47211090678440        4.79963871601596       -8.25615153252332
C            4.44486518009855        3.85022910316575       -5.84295837127592
F            5.58610958779186        4.51711082926719       -5.68079390973708
C            3.90703642773050        3.20859582419047       -4.74593681492356
C            1.62323317239400        1.22735348413305       -1.15848100634157
C            1.37238089465102        0.80754201122327        0.13276741064709
H           -3.87028480139797        0.20480307173951       -2.53643797007280
H           -2.61351367231149        0.63977000561247       -1.37750194000243
H           -4.30968713991022        0.94883372837851       -0.99856594527446
H           -3.04295110719331       -1.80774962692378       -1.34596020010131
H           -4.74182140350747       -1.51806119935257       -0.97729520374731
H           -4.13927232518482       -0.46990029743683        1.16807233482441
H           -2.42248505137813       -0.62085162120476        0.78931743643729
H           -2.66960598246521       -3.10707247238488        0.72077196457153
H           -4.35731166092130       -2.93951620250417        1.21973428472810
H           -2.93318952407045       -3.44915468367843        3.15642578042302
H           -3.60637157158313       -1.80229281817302        3.31988574817767
H           -2.45192017956844       -2.63826541414796        5.22024113161715
H           -1.40485446852810       -2.81407309316350        9.41814775896370
H           -0.53373394479614       -1.33344799162150        8.94944757293472
H            0.21485946137722       -2.93512983932394        8.68837382238031
H            1.07270653033151       -1.29757471272860        7.21003427379856
H            1.97356880028826       -0.53023884265524        5.06094648058461
H           -0.54701704134265       -1.89270810969712       -0.54054964195685
H           -0.11262882610570       -1.11446607904476       -2.87071866441888
H            1.10027120796061        1.95220182041298       -6.18252695939536
H            2.07573987939754        3.12293353373925       -8.12422893298729
H            4.42068873671159        3.24447942493681       -3.79886615968578
H            2.22859627200332        2.10418098700185       -1.32453390216811
H            1.78591148774293        1.34867335703851        0.96749744348787
