57
 energy: -104.865613564679 gnorm: 0.000210197304 xtb: 6.7.1 (edcfbbe)
C            0.32051847067602       -5.26298053219426        3.56286505715532
C           -0.67394798104309       -4.89756295197314        2.46666225731015
C           -0.18416991112475       -3.77067987786704        1.55876317993594
C            1.01650524232013       -4.17006056452468        0.70611396574138
O            1.29291221695360       -3.08070315006847       -0.15632319928305
C            2.31067642643747       -3.15886726415230       -1.03020178387613
C            3.12197190477971       -4.27718218321264       -1.16344482161021
C            4.17111738879076       -4.31807662558376       -2.08157011456992
O            4.87484496124474       -5.47335678734844       -2.10120582003020
C            5.95515460338067       -5.59573181917041       -2.99873663843373
C            4.42387786539531       -3.21139372086371       -2.89072467354456
C            3.62567190558235       -2.09776611509018       -2.75968055659669
C            2.56991020299252       -2.03610307748090       -1.85113335216635
C            1.81601265740912       -0.77417206795475       -1.81595144474189
O            2.11434964566077        0.20134268185699       -2.46334114765761
O            0.73525108447385       -0.83393378554841       -1.00254177006465
C           -0.07338695901831        0.23183199182728       -0.72437458927622
C           -1.35550928486968       -0.09794361606376       -0.27778925101839
C           -2.23921462299916        0.89330283490255        0.07811369086275
C           -1.86108462445629        2.23623483614621       -0.00390151534407
C           -2.84618266883546        3.25541584530747        0.39418875188992
O           -3.94911450698322        3.01825656550327        0.81232393798392
O           -2.35086516878666        4.51458311974784        0.21377627000824
C           -3.00956470933782        5.66326805860160        0.53546888231908
C           -2.44633990733726        6.83144892694644        0.00764471126152
C           -3.00393833454875        8.05436038257594        0.28947505185937
C           -4.13794909314335        8.15210657198793        1.09577184257004
N           -4.69288221690818        9.46093839708168        1.34892125324375
O           -3.98664566899174       10.41057378898166        1.08185496782964
O           -5.81289424002028        9.53416522101251        1.79427112029693
C           -4.68752363545831        6.98335668639964        1.62161302637773
F           -5.74552581074771        7.02103477959114        2.42818990304892
C           -4.13053156710247        5.74392645926743        1.35328628408031
C           -0.57842314855994        2.55884017733046       -0.44326888490910
C            0.31398418100745        1.56747792445676       -0.79954341127872
H           -0.11754234555673       -5.99483875101163        4.23722997664979
H            0.58858399957622       -4.38229806148517        4.14186732961441
H            1.22777713386517       -5.69142861239371        3.14510354185712
H           -1.60860692560100       -4.57816083723385        2.93166081188391
H           -0.89086115226409       -5.78120875167189        1.86236396784166
H            0.08461632823138       -2.89826843931734        2.15634700988156
H           -0.98774088750569       -3.47482521154720        0.88235959589858
H            0.77845247461100       -5.06796397524723        0.11979213879371
H            1.88979760599275       -4.37738686736173        1.33633064931481
H            2.96981797737109       -5.15740802190064       -0.56141206663549
H            6.36137416327897       -6.59228488812305       -2.83422849790761
H            6.73011591838887       -4.85063891988966       -2.79608001884167
H            5.62449880157358       -5.50627903194112       -4.03768720570211
H            5.22596275632394       -3.21114057498056       -3.60967323791625
H            3.80275253162312       -1.22662320188813       -3.37205641762150
H           -1.62586869828139       -1.13997519303832       -0.21956591010434
H           -3.23379066798108        0.65477450499661        0.42250288698364
H           -1.57375855393058        6.74967189671136       -0.61947789739480
H           -2.58292578342803        8.96550886116891       -0.10765491362099
H           -4.58560276218328        4.86514510752282        1.77984805452953
H           -0.27609045154777        3.59228862777608       -0.50178512586910
H            1.30198384057434        1.82738923040073       -1.14135585100848
