38
 energy: -51.117430271922 gnorm: 0.000078083871 xtb: 6.7.1 (edcfbbe)
H           -0.03645345914892       -6.19192908093884        0.23106793550220
C           -0.55439504312980       -5.25751359310201        0.39106214280174
C            0.13415826598017       -4.06308209000049        0.38574295408975
H            1.20347757293402       -4.06474919530118        0.23465390169804
C           -0.52774407787181       -2.85300648245238        0.59882103444064
C            0.21265170163825       -1.58518663250238        0.59364970249948
C            1.22771866425604       -1.35592399728616       -0.33345685599194
H            1.45770799765900       -2.11102401747029       -1.07119098023775
C            1.92106235347124       -0.16245618351737       -0.33697714962407
H            2.70295567991865       -0.00188441879614       -1.06571000308457
C            1.63098928826076        0.83675380373535        0.58541843928439
C            2.37293535867820        2.14052097305701        0.54912711100638
H            2.21295165501544        2.68410283117908        1.48229014585784
H            3.44356077634170        1.94640399082384        0.44718720130262
C            1.91653531252272        3.01362608820350       -0.62743111111401
H            2.53665930493238        3.91242826508735       -0.66239855813395
H            2.06835955855909        2.46735430141610       -1.56099492858964
C            0.44899386880394        3.41639023010955       -0.51454215997869
H           -0.17059476120868        2.51701071267423       -0.48440147263486
H            0.29315662864434        3.95851188979890        0.42142875898721
C            0.00650673538402        4.29367196389050       -1.68292476297675
H            0.62119899585534        5.19659073238217       -1.71041236956914
H            0.16916954640202        3.75473825878777       -2.61922394981436
C           -1.46213351694241        4.68410992792870       -1.57328555568140
H           -2.09217334633690        3.79722916315654       -1.56717864735724
H           -1.64232885418562        5.23748336610173       -0.65413373014431
H           -1.75685205109816        5.30895728396796       -2.41313295479224
C            0.62243291054292        0.60562023412596        1.51220782124908
H            0.38520340884440        1.36672957744415        2.24189646670944
C           -0.07972871256866       -0.58419891575894        1.51689059604674
H           -0.84651645178564       -0.74961768790270        2.25984883591299
C           -1.90605248064003       -2.87139165255854        0.81716818146140
H           -2.43350043126805       -1.94070987178992        0.96537058672949
C           -2.60670430235309       -4.05884163214410        0.82131641286293
H           -3.67444869350359       -4.06715700719500        0.98527956963620
C           -1.93316064890538       -5.26263988973783        0.60841754710897
C           -2.64435865012734       -6.48290808457683        0.61277226891053
N           -3.22124010356727       -7.47414316083641        0.61565757563125
