56
 energy: -71.638453276221 gnorm: 0.000083827255 xtb: 6.7.1 (edcfbbe)
H           -3.44739799103168       -0.61403667251847       -1.66696837098975
C           -2.48366169159447       -0.59888348285063       -1.18072363007044
C           -1.82507495801648        0.61990786158137       -1.04340901684445
C           -2.48031246033274        1.84095891333809       -1.56704598018374
O           -3.58661073558221        1.85705996124851       -2.05446870537418
O           -1.71331464161702        2.92928645252199       -1.43229107827779
C           -2.25543107425326        4.17254725017195       -1.89363898103451
H           -3.33156992555815        4.17753675812769       -1.67432040614321
C           -2.04942948142301        4.32121346610221       -3.40051680355796
H           -0.98330983845171        4.22465999034094       -3.61977247219152
H           -2.57971857866572        3.51827444751024       -3.91549039255691
C           -2.56054066820708        5.68030072235007       -3.86729006364735
H           -2.39201149006341        5.78475571886287       -4.94059465235620
H           -3.63639562306181        5.74024414783053       -3.68917943062207
C           -1.85763918514035        6.80618385490502       -3.11468960317276
H           -0.78881313777212        6.78028592525619       -3.33849657266234
H           -2.24582319440569        7.77193913696095       -3.44386171667926
C           -2.06401100387181        6.64994649499871       -1.61094482877426
H           -1.54164882818606        7.44539405910578       -1.07624525724723
H           -3.12852808501173        6.73342121815827       -1.38090182731686
C           -1.55043227485865        5.29353547680815       -1.13805949371330
H           -1.71824190473494        5.17205241515003       -0.06643520298109
H           -0.47718479673448        5.21477135700468       -1.32267812601188
C           -0.58219667664989        0.65552603214164       -0.41686716770663
H           -0.07066485216181        1.59906839674986       -0.30741239980511
C           -0.01632381882503       -0.50848790337458        0.06216076673454
H            0.94672036005968       -0.46187417477838        0.54854336584576
C           -0.66649708982823       -1.73244094441879       -0.07209210982272
C           -0.05761834817593       -3.00272144186284        0.45741896039936
H           -0.72478165890107       -3.83549685569478        0.20626586431437
C            0.08202580979409       -2.95458917848676        1.98316870382269
H            0.71898785858496       -2.11693908985229        2.26835150582125
H           -0.89991277297054       -2.78557192735085        2.43165281457375
C            0.66545437356480       -4.26186777246521        2.51154070905463
H            0.76164510786980       -4.20671540080322        3.59684669924677
H           -0.03185880234419       -5.07313574160354        2.28673273483674
C            2.02043711466206       -4.60018237913550        1.87986297040514
H            2.29114381076552       -5.61747870306232        2.18938810197692
C            3.15210287385572       -3.67328900211818        2.34054547319714
H            4.01639810322315       -3.83493891510840        1.69089413849103
H            2.85611955413985       -2.62941287867909        2.23604727159620
C            3.58397423936476       -3.92123996049820        3.78469365621215
H            2.75180342183885       -3.72091698594206        4.46193672543948
H            3.86253676456829       -4.97106520173636        3.90349965791225
C            4.76401746175679       -3.03890579971351        4.17444533537935
H            5.61830731149151       -3.23627303014585        3.53021598079791
H            4.50197304888215       -1.98699808925701        4.08105275429466
H            5.06037384390246       -3.22743970684824        5.20373708809179
C            1.87339881126458       -4.60256868342129        0.35360251195121
H            2.84288504130345       -4.79827404685710       -0.10987771162995
H            1.20113294985409       -5.41546984196882        0.06684413457110
C            1.30864729126786       -3.28762632190677       -0.17501703578565
H            1.20083838112878       -3.34400283383389       -1.26086131507128
H            1.99980301960218       -2.47425534171078        0.04575238153642
C           -1.90706765228157       -1.75742975411799       -0.70105493000728
H           -2.42674331202433       -2.69833199512363       -0.81398502427747
