57
 energy: -79.383445414996 gnorm: 0.000206157834 xtb: 6.7.1 (edcfbbe)
H           -2.06139411295368       -7.45513192406799       -6.04551652767587
C           -2.09660649311437       -7.20616436608569       -4.99551719417239
C           -1.58886547571107       -6.00749230253007       -4.54383726548035
H           -1.14695436207013       -5.29845717269029       -5.22637358627215
C           -1.64125302996547       -5.69496948825760       -3.18720608300106
O           -1.06344092056718       -4.50031805233046       -2.81491014423284
C           -1.59561649165090       -3.72899737649504       -1.83414841523983
O           -2.62479532588956       -3.98654890570251       -1.26350643608724
C           -0.77227763421186       -2.53085052643724       -1.58112917617651
C           -1.24909444802620       -1.58564741608586       -0.67344003705526
H           -2.20027376841574       -1.76364133947286       -0.19487167446320
C           -0.51584699862238       -0.45087916340455       -0.40084608338811
H           -0.90359051898898        0.26937225676339        0.30339855878902
C            0.71107143392566       -0.22710991898839       -1.02133559586683
C            1.51785578502652        1.00779613975058       -0.72734970503714
H            2.43100290581236        0.97875204062051       -1.33308197052791
C            1.93118091062565        1.06189054706819        0.74800669454704
H            1.04367161677787        1.05155967134878        1.38075224053827
H            2.51694417122705        0.17241300097596        0.99240800170436
C            2.76011019693662        2.31139080892442        1.03094526280895
H            3.03750607900613        2.33311540934846        2.08564731549272
H            3.68530927540628        2.25869836174318        0.45117332783795
C            2.02556310421751        3.60239938854161        0.65327790321564
H            2.73619487866694        4.43308511265148        0.74467957356780
C            0.84084036169270        3.91841095340987        1.57458139226903
H            0.24976529444034        4.71496895772714        1.11512448827525
H            0.19245179040998        3.04785646757075        1.67365039187442
C            1.26577117986008        4.37688846196975        2.96823195814544
H            1.82916917687924        3.58520340766839        3.46586089927983
H            1.92376272793841        5.24487312702216        2.87951212959110
C            0.06149907926612        4.74386571612092        3.83245312235046
H           -0.50073349499777        5.54585242855096        3.34785712110803
H           -0.60193206460045        3.87918423323837        3.91371675042789
C            0.47185596133432        5.19321353565867        5.23258320185872
H            1.02968569993096        4.39013987760168        5.72006392665101
H            1.13704509117244        6.05619784791688        5.15357303791563
C           -0.73542268210556        5.56103313940392        6.08629928574763
H           -1.29229948298163        6.37583520069714        5.62850352361703
H           -1.40270421552832        4.70811065931454        6.19072198555840
H           -0.42214311319166        5.87496221484282        7.07925199187792
C            1.59482776338900        3.51711346625788       -0.81558317296461
H            1.03480759775722        4.41397747469975       -1.08873973306807
H            2.48924044292882        3.48299526549122       -1.44309175974412
C            0.74719918348602        2.28042974467628       -1.09688223499538
H            0.48377118573351        2.24879803043885       -2.15685450254205
H           -0.18110456163466        2.33275075446630       -0.52827549603497
C            1.17997959931949       -1.17757874336302       -1.92319706426008
H            2.13114087440381       -1.02025678685657       -2.41170568875887
C            0.45382157057319       -2.31733096139190       -2.20611750385194
H            0.83262834513061       -3.04492166611663       -2.90695106690149
C           -2.19695700661059       -6.58832745064281       -2.27835461888165
H           -2.23271754504690       -6.34543236583988       -1.22898209450589
C           -2.71083558290430       -7.78727957416205       -2.73143073890455
H           -3.14726881197693       -8.48687361032187       -2.03444420236682
C           -2.66501991136009       -8.10302498291039       -4.08889879691205
C           -3.18821198357222       -9.33335397585434       -4.54815522518785
N           -3.60827324657082      -10.33253563243433       -4.92150029053580
