67
 energy: -115.534466455215 gnorm: 0.000154357981 xtb: 6.7.1 (edcfbbe)
C            2.29100184067997        2.66713366031370       -7.69107388620104
C            1.50164852016491        1.95787363921107       -6.59602747170240
C            1.75131842556846        2.54888406929184       -5.20704703501985
C            3.09715488071879        2.16578271225779       -4.58140707603060
O            3.07027953248690        0.85422780157356       -4.04911217618574
C            3.42046636575351       -0.24199908699544       -4.74821819584095
C            4.09471700180351       -0.20904428550350       -5.96874965697257
C            4.47049797262278       -1.37604321354129       -6.62039734166111
O            5.11625245391326       -1.41414510769133       -7.80897366060577
C            5.42781761421017       -0.20761032304987       -8.46484345500925
C            4.18028579392156       -2.61662993313274       -6.04217503464484
C            3.52201057681187       -2.65810280700749       -4.84149092182240
C            3.12151221570277       -1.49580243640189       -4.17374496062741
C            2.39758085400191       -1.69981288745413       -2.90608659877518
O            2.22748427679561       -2.78990073701560       -2.41181497594782
O            1.93917842624692       -0.54416127252175       -2.38135574139588
C            1.22506643655846       -0.41552182350817       -1.22063894586817
C            0.93552408418194        0.90877309156565       -0.87814245794918
C            0.21499240438805        1.18845140597116        0.25860728288463
C           -0.23405149132918        0.15082746728071        1.07811224703558
C           -1.00590734546300        0.50477264660870        2.28685548662556
O           -1.24393951912745        1.63353771688627        2.63662276371801
O           -1.43706715781703       -0.59756785099319        2.94171904522292
C           -2.15157934504648       -0.50428790058629        4.11964598756374
C           -1.87420528061402        0.42758895616425        5.11100540594201
C           -2.61988714247015        0.42434606613843        6.27389183127393
C           -3.63265120115521       -0.51018530202781        6.47926059100368
C           -4.41705424901747       -0.50369055102657        7.71950361936040
C           -4.82318870169073        0.70349382302048        8.29389913939132
C           -5.56147061711835        0.71701032237109        9.45781576341659
C           -5.89918536697090       -0.48796274294288       10.06459129653098
N           -6.66682076249880       -0.48005530115361       11.27975024338517
O           -6.99043554486871        0.59691523353344       11.73670002314220
O           -6.94645775707195       -1.55097775165982       11.77830703566775
C           -5.50362584459489       -1.70065890588806        9.51052861749912
C           -4.76922451032867       -1.70278451690285        8.34404007680920
C           -3.88362969184508       -1.45249019930017        5.48192317256226
C           -3.15684764902785       -1.44715774451155        4.31022683100235
C            0.05882212255859       -1.16564966705366        0.73397190273689
C            0.78326081383823       -1.45471538623368       -0.40705614540061
H            2.09862847155717        2.20367646061271       -8.65606566877267
H            3.36201493391818        2.63143276261459       -7.50413199614992
H            1.99765279172003        3.71302751914203       -7.75083262411053
H            1.73952378549685        0.89231495114961       -6.58970488891744
H            0.43752804204002        2.05079060956463       -6.82299370617028
H            0.97115290082219        2.20474660507700       -4.52518436752105
H            1.69553829962036        3.63782978378642       -5.26364965106070
H            3.27711910014132        2.80253797053892       -3.70909282133526
H            3.92379486072944        2.31619264975624       -5.27991645023904
H            4.33253866924146        0.74042021442921       -6.41615275978003
H            5.92213566555896       -0.49640961981038       -9.39081973798928
H            6.11040058488030        0.40868912319382       -7.87091472044642
H            4.52583917932931        0.36555695170773       -8.70153797231506
H            4.48110019905572       -3.51293383893234       -6.55803113387726
H            3.28482604198667       -3.60207867442308       -4.37551711282085
H            1.29410991605536        1.69249813436598       -1.52642460335434
H           -0.01633034643006        2.20533833233009        0.53672296941213
H           -1.08838198792668        1.15190861435337        4.97265501413297
H           -2.39036420933642        1.14194254525663        7.04701554091834
H           -4.57348787864432        1.63398837876195        7.80790735708114
H           -5.88659075616963        1.64234816771439        9.90831238421700
H           -5.77673568490456       -2.61959470600828       10.00639357845644
H           -4.44376171032651       -2.63982943444741        7.91914644672209
H           -4.67596159024964       -2.17397266709502        5.61260918607823
H           -3.35506549133809       -2.16511656256593        3.52979692885142
H           -0.28263347960145       -1.97101534556358        1.36514791642284
H            1.00576625793310       -2.47693980351338       -0.66336973263805
