43
 energy: -66.629266650901 gnorm: 0.000167652291 xtb: 6.7.1 (edcfbbe)
H           -8.13693083292338       -1.83818538484223       -3.54464491340966
O           -7.18642901742989       -1.70126593603295       -3.48241254481599
C           -6.91421340830741       -0.79204025328384       -2.43780913213931
H           -7.40132350600847        0.17511199430119       -2.63353987823981
H           -7.29571967533344       -1.17917964768344       -1.48123455336242
C           -5.40386230464047       -0.60025686302104       -2.35017339714103
H           -4.94389265433794       -1.57339758976543       -2.17298182392804
H           -5.04784509396243       -0.23715983963436       -3.31546536101092
C           -5.01297456811567        0.37452298411564       -1.24431935601578
H           -5.48487008760560        1.34259677050416       -1.43031894842179
H           -5.38540251301720        0.00445121431128       -0.28641468372694
C           -3.49985510261161        0.55616154333543       -1.16249602926764
H           -3.02699877831321       -0.40596478050555       -0.96165672169440
H           -3.12717461698854        0.91866215628718       -2.12321492757865
C           -3.10345662944416        1.53891320074775       -0.06311587323254
H           -3.53784988726493        2.51988164941089       -0.26378484051414
H           -3.48297298377832        1.18529278885714        0.89666389267752
C           -1.58971011578085        1.69240834086391        0.04289278742898
H           -1.16823492566407        1.95510448256606       -0.93685963733840
H           -1.34029516316724        2.48608539005867        0.76058639029006
O           -1.05671914052305        0.45806401427553        0.48578907212157
C            0.27816912886929        0.33823861683400        0.65219825349657
C            1.21521237413481        1.34281705973856        0.42049985765627
H            0.90953729371420        2.31616123142170        0.07246808188421
C            2.55885037547677        1.10119803981102        0.63501563371379
H            3.26987682307283        1.88873348828650        0.43514242720592
C            3.03138448435510       -0.13293437960933        1.07243455310586
C            4.46574365145991       -0.36134703620247        1.29196080277997
C            5.23838706173597        0.61792141208064        1.91822604638187
H            4.76783434154131        1.52715264303876        2.26212134342406
C            6.58764131008151        0.42705658579110        2.12583422502932
H            7.18128754021310        1.18470549874896        2.61623074781561
C            7.19298667257124       -0.75770033483923        1.70354262375141
C            8.57628291930725       -0.95614019056127        1.91101172783017
N            9.69999896506277       -1.11246143692933        2.07785690542737
C            6.42942923436351       -1.74267064610996        1.07610578336268
H            6.90222203042404       -2.65716376722565        0.74963563950005
C            5.07972929106331       -1.54236576445207        0.87490053407027
H            4.49799124322167       -2.30432839772118        0.37974876447066
C            2.07122206479547       -1.12157681551198        1.29284187936554
F            2.45092070425328       -2.33494649594725        1.74745162191813
C            0.72634033063390       -0.90678922471375        1.09805875782753
H            0.01571316486491       -1.69337632079674        1.29123426930412
