48
 energy: -101.367310475764 gnorm: 0.000201104339 xtb: 6.7.1 (edcfbbe)
C           -9.27294522625803       -2.78136770046034        0.09501153360426
C           -7.88759944662693       -2.17286512212912       -0.07451513886747
C           -7.15143118559942       -2.79429737894423       -1.27204141371885
C           -5.80208345069292       -2.14638339514693       -1.40295993700438
O           -5.53414022724115       -1.20960066887261       -2.09814460352869
O           -4.91720138114105       -2.77311147191856       -0.58167633455803
C           -3.63868686248458       -2.33795923716036       -0.36133170503566
C           -2.75391977462724       -3.30033984548703        0.12137510594182
C           -1.46186327230931       -2.93631772716166        0.43784232627217
F           -0.63078248564044       -3.88024925679582        0.88069981045617
C           -0.99412568784570       -1.62952594070557        0.27821732804349
C            0.38871183696460       -1.25203648718745        0.69613674035547
O            0.95157338076867       -1.71148338070906        1.64922723240473
O            0.88650577469580       -0.33587727946336       -0.15188324830103
C            2.07836758458706        0.32416776695635        0.03448548100839
C            2.57406942955924        0.98213823076636       -1.08989194718052
C            3.73442530260369        1.71963614746362       -1.00502111545892
C            4.43245317031015        1.84072715107252        0.19752422336145
C            5.65810915746743        2.64652561573258        0.28214650197021
C            5.88216465989464        3.49534397331288        1.36462620363501
C            7.03195665914395        4.25561325249167        1.41317671667440
F            7.22336426319061        5.07483037190460        2.45359436021942
C            8.00014236414498        4.20543262824616        0.40559461719333
C            9.17377452744010        4.99209196214310        0.46538039848230
N           10.12199662841867        5.63176335617200        0.50931305848034
C            7.75089664386169        3.34192164623629       -0.66549206518532
F            8.65120740939561        3.25541564551278       -1.65338410543339
C            6.60607000603219        2.57749308002194       -0.73831104355661
C            3.90966066073509        1.16860190703859        1.30034872353047
F            4.55404175119098        1.22615175156982        2.47970952992219
C            2.75472527051754        0.41083727676823        1.24290382269668
C           -1.90868472470891       -0.70070328875472       -0.21721784899141
F           -1.53746040962706        0.57642810311452       -0.35935401900771
C           -3.21513563561501       -1.02554334424721       -0.53201228201481
H           -9.78090529039975       -2.32655626527012        0.94150969605189
H           -9.20255839456681       -3.85210778615179        0.27103116907655
H           -9.87482343377512       -2.61723521844561       -0.79540603437459
H           -7.30083996913914       -2.33791244634063        0.83147843462121
H           -7.97600919733652       -1.09595850062985       -0.23059844042360
H           -7.71785143326085       -2.61517974301407       -2.18575730943530
H           -7.03080885051367       -3.86538451456032       -1.11152482136612
H           -3.07953315562947       -4.31875854402687        0.25504541697666
H            2.02757488706572        0.90896449647184       -2.01599936960901
H            4.09940817094525        2.23933704244075       -1.87706859027358
H            5.16851018200493        3.58105058486834        2.16783636857379
H            6.47040739371497        1.91604730456679       -1.57892475921055
H            2.41241641746122       -0.09482556851352        2.13047164141756
H           -3.87316403703050       -0.25896918274759       -0.90618030848736
