44
 energy: -88.143937985653 gnorm: 0.000164899048 xtb: 6.7.1 (edcfbbe)
C           -6.08895482686227        3.55132661116792       -6.35860343009981
O           -5.65252888310328        3.84243788460069       -5.04826289055468
C           -4.69096792361812        3.08064766581488       -4.49564679750727
C           -4.29935604453689        3.42482620302324       -3.19433038990935
C           -3.32422307765530        2.71072987462066       -2.54484009232361
C           -2.69060397058403        1.62023324581518       -3.15318893611139
C           -1.64113349234779        0.83985215346545       -2.46543448000550
O           -1.09790386682994       -0.13909739866550       -2.89976782110964
O           -1.35438730480409        1.40183707954512       -1.26062720511390
C           -0.45397490015605        0.87285595799646       -0.36734530143013
C           -0.09708154628717       -0.47001785857909       -0.29992958711196
C            0.78361373851943       -0.89184768187307        0.67737446657360
C            1.31014857025263        0.01180545846131        1.59682059982950
C            2.25106133212189       -0.39226358860355        2.66063041355305
O            2.74907013064957        0.36277909555418        3.45450475716419
O            2.46164759248237       -1.73384998395936        2.64718666926106
C            3.32112919416075       -2.37588057786862        3.50123624098016
C            4.44269232545670       -1.78757850174873        4.08064601922861
C            5.26193277569605       -2.54642190281650        4.89279465378336
C            4.96654996615375       -3.88464249638174        5.11908189347395
N            5.82580631470980       -4.66973878960430        5.96676265428994
O            6.78355026857980       -4.11759762297295        6.46460322623379
O            5.53999684381963       -5.83702579942809        6.13036123698090
C            3.85287966213882       -4.47990243820454        4.53453173112932
C            3.03327559298953       -3.72431161491429        3.72735828460768
C            0.94276418340289        1.35682333656054        1.52433835806414
C            0.06865719098674        1.78441484045101        0.55175588281592
C           -3.09673694113042        1.29132789505352       -4.44719634079693
F           -2.53988234281437        0.26371720399140       -5.09654808088856
C           -4.07633515185134        1.99885084525410       -5.11978888110611
H           -6.85205275030943        4.29369028155442       -6.58471551697232
H           -6.52651351621522        2.55085903279420       -6.42018216345626
H           -5.27163431055507        3.63984692030190       -7.07993241546729
H           -4.78486643545987        4.26318542342983       -2.72200114596930
H           -3.03434679591860        2.98620272694519       -1.54399578059735
H           -0.49552290899824       -1.17720591013778       -1.00800934473990
H            1.06337363055109       -1.93207799555752        0.72750308272607
H            4.66746626872551       -0.74892103476244        3.90574128058798
H            6.13600694589891       -2.11424024775828        5.35539106966246
H            3.64877104281510       -5.52219604493660        4.72542141125528
H            2.16244990907344       -4.15500133561780        3.25955502812930
H            1.35669811082588        2.04788083718196        2.24241837032846
H           -0.22657240593383        2.81952833342084        0.48210868057853
H           -4.33399219403963        1.68415991738699       -6.11776940996584
