53
 energy: -102.607754166916 gnorm: 0.000231504868 xtb: 6.7.1 (edcfbbe)
H           -3.89741953027281       -8.37728951305915       -2.09556136460629
C           -4.33211424853329       -7.39104486929121       -2.02669212859940
C           -3.63428685534747       -6.35855565993226       -1.43564749996990
H           -2.64386681322221       -6.54092742623263       -1.04823488437309
C           -4.19045081777095       -5.08244364487582       -1.34752996012754
C           -3.45172328046103       -3.97368901239369       -0.72861010252073
C           -3.44554909910563       -2.70070869831865       -1.30436145789764
H           -3.97782038454253       -2.54629360961682       -2.23043063876493
C           -2.75681988403400       -1.65393191680213       -0.73783696777962
H           -2.75277793168127       -0.67864365531438       -1.19694251587262
C           -2.04219508633505       -1.82946173597122        0.45141368885319
O           -1.40288918791887       -0.74038527597431        0.93125653421583
C           -0.65368492900306       -0.85310652110643        2.12704389778490
H           -1.30940736104589       -1.16212862448567        2.95224876433670
H            0.13953881265395       -1.60298920721483        2.00451984020881
C           -0.04397842966368        0.51156543146318        2.42976956466770
H           -0.84699640438413        1.24934971777476        2.46071080905509
H            0.42364411165072        0.47123480761118        3.41490594278687
C            0.98481540741033        0.92126398058356        1.37834252794672
H            1.79211686268923        0.18599905946618        1.35606944759200
H            0.50535168700796        0.92222751277729        0.39876001749217
C            1.56589823521829        2.30273741797423        1.66723703144119
H            0.75947598220905        3.03866225013843        1.68269053672709
H            2.02988928557003        2.30048182210088        2.65616020478456
C            2.60210399666736        2.70813583920869        0.62280284194952
H            3.41696360860831        1.98322177420923        0.60204964496269
H            2.14785040899081        2.72600036509683       -0.36854970918909
C            3.18153360801347        4.08504504727425        0.92308566337905
H            2.39080612644093        4.84312958134364        0.90768280572737
H            3.65771642458368        4.08956500190911        1.90980227369649
O            4.14702851603569        4.36107601471244       -0.08854982092450
C            4.85603608073274        5.49220316474969       -0.08276776412362
C            4.77876627336100        6.55551967730261        0.82362907736003
F            3.91222222363677        6.53675126161859        1.85424050882160
C            5.59181976219436        7.68007635158792        0.70155764343585
F            5.47632017599495        8.66390220492740        1.59517864386966
C            6.51151277794184        7.78367380513370       -0.33221490230872
F            7.28875715871117        8.86290925638812       -0.44450343206380
C            6.60977169386267        6.74123082158664       -1.25156707548339
F            7.48530655876630        6.81604619591660       -2.25405169579562
C            5.79757996807110        5.62695065215971       -1.12116866568807
F            5.90163144434048        4.63211455818473       -2.00848720832307
C           -2.03871993973661       -3.08445503242685        1.05038180593892
H           -1.51849603029487       -3.28619971413212        1.97225285647328
C           -2.73210089876298       -4.12047738543495        0.45202053116204
F           -2.71629614965818       -5.31277850828436        1.08776928658722
C           -5.46662899223440       -4.86315455674736       -1.86835713488260
H           -5.91240978584605       -3.88280768502007       -1.78840219379017
C           -6.17336285117171       -5.88853311780683       -2.45937933823076
H           -7.16332237742376       -5.71699399364840       -2.85599216154565
C           -5.60800282995705       -7.16209400404276       -2.54270953328104
C           -6.32829633503427       -8.21541170060768       -3.14934505576064
N           -6.91489075792347       -9.06652850445976       -3.64569917937602
