51
 energy: -62.220538682923 gnorm: 0.000083290138 xtb: 6.7.1 (edcfbbe)
H           -5.21309726816879        0.57253169674999       -1.87694690799618
C           -4.16880296958998        0.66839129952175       -1.61895595682488
C           -3.59740123188330        1.94106181773569       -1.64625859280059
C           -4.46728385102344        3.08329436202070       -2.02547299688629
O           -5.62656094756981        2.91584509065912       -2.33474569508386
C           -3.83744556947509        4.46330161123066       -2.00364378995710
H           -3.44142966815082        4.64592720092900       -1.00173425628383
H           -2.99799531132066        4.46753300879104       -2.70344645073445
C           -4.83839737252625        5.54751652461367       -2.37948050611207
H           -5.23453582065242        5.36321652505414       -3.37476691460556
H           -5.67180754513524        5.54666925967432       -1.68158984605423
H           -4.36498234686629        6.52630044541765       -2.36302953827000
C           -2.24870623870999        2.06730467807689       -1.31560318674434
H           -1.76620635047250        3.03238724105040       -1.32743084308171
C           -1.50745131809839        0.95618468566079       -0.96839656278784
H           -0.46477811734590        1.08333194248814       -0.71698933120028
C           -2.07740718735301       -0.31359448970532       -0.93678659675419
C           -1.26799199180739       -1.52038226022522       -0.54638371698497
H           -1.91371831567419       -2.40449395822401       -0.60102006846935
C           -0.75838227207837       -1.39593850389498        0.89433909169072
H           -0.15679487953790       -0.49271891169335        0.99728442871713
H           -1.61139230894362       -1.29834354086502        1.57036412133705
C            0.06610784280436       -2.61812648405497        1.28622379477479
H            0.41872284471276       -2.50755186506248        2.31253723432482
H           -0.57692155264252       -3.50160119742469        1.25600755553853
C            1.25023667834990       -2.85098184860572        0.34202892478449
H            1.70864959769196       -3.81200653250261        0.60638241052323
C            2.34318111267533       -1.78137461918196        0.45682757796803
H            3.05338642062427       -1.92898008708605       -0.36119451087343
H            1.91449323283918       -0.78623279472142        0.33912638200675
C            3.11025090435311       -1.83159216213653        1.77648535696847
H            2.43056860627700       -1.64602496426096        2.61027307948457
H            3.53629953603108       -2.82863559805011        1.91226806639103
C            4.22982647414877       -0.79367134305441        1.81401661050113
H            4.92445858993557       -0.97994475865602        0.99126113752080
H            3.80359514132238        0.20184821173567        1.66583548149303
C            4.99619358190260       -0.81776827392246        3.13406824538346
H            4.30196352894286       -0.63359800864614        3.95741217880615
H            5.42787380273483       -1.81027705781878        3.28215665726953
C            6.10502581888356        0.22691094238123        3.16447027910997
H            6.81812250313756        0.04965548087635        2.36217200594520
H            5.69167115953759        1.22551173502368        3.03903429064062
H            6.63858836499491        0.19314708372120        4.11148592404178
C            0.72068977979744       -2.96217875152641       -1.09248885905014
H            1.55421172963274       -3.09764890792643       -1.78519283754914
H            0.08434926875846       -3.84797615464379       -1.16457447937924
C           -0.09019321641739       -1.73685474456463       -1.50348309958689
H           -0.47176615464747       -1.87315406645859       -2.51832694921703
H            0.55147754155501       -0.85582367271017       -1.51035301439735
C           -3.42175493794934       -0.43739755456499       -1.26984349964936
H           -3.88673931762504       -1.41296773127789       -1.25392182790086
