54
 energy: -101.704075322083 gnorm: 0.000105502749 xtb: 6.7.1 (edcfbbe)
C           -1.64273727097548       -1.97003769055732       -3.73884014397829
C           -2.33400350133988       -0.77417671305799       -3.09576790765634
C           -1.81071235698986       -0.51286407772218       -1.68663494194902
O           -0.44265008044845       -0.15046709491088       -1.79739239920138
C            0.29120294486692        0.03709792829606       -0.69232413696761
C           -0.25225091270274       -0.00626320842207        0.59271622637335
C            0.54809547807044        0.17605180724706        1.70807358153895
O            0.06790307391801        0.18663301104285        2.99504818401072
C           -1.04038857109493       -0.49202518627883        3.38785584148931
O           -1.67802275384294       -1.22185499741622        2.66969159657971
C           -1.35090148810891       -0.23787775860004        4.80410532496007
C           -0.61612372462078        0.64891971230083        5.58653340048934
C           -0.95054161744660        0.86526453342799        6.90841730144994
C           -2.03325246650067        0.19314599050899        7.47562443359490
O           -2.44740068420986        0.33132207325791        8.75421043820153
C           -1.75558591594859        1.21379004473038        9.60809963968343
C           -2.77182659658766       -0.70025600134769        6.68948863831882
C           -2.43541887838971       -0.91082035365215        5.37534305929423
C            1.91412754426253        0.42440366341813        1.56851503514588
C            2.45294589878299        0.47978242803414        0.30722723483024
C            1.67247450227344        0.29140586717959       -0.83743117671273
C            2.38734609234304        0.37104740476411       -2.12143121716533
O            3.58094112812022        0.51577929272561       -2.21390938122451
O            1.55058008916809        0.28464654344287       -3.18802175329085
C            1.93431723022681        0.31272917667069       -4.49184090591219
C            0.87790916756699        0.42642404438769       -5.40509557518610
C            1.12869169942854        0.44574777640357       -6.75413311892764
C            2.43378261642661        0.34647295496723       -7.23853183543332
N            2.64091713045098        0.36415177622565       -8.66615055626281
O            1.69791732307607        0.70966062868961       -9.34800610651546
O            3.71905106439917        0.03066543214085       -9.09686565333749
C            3.47896144793111        0.23309487212839       -6.32198465046767
F            4.74540529884293        0.15849504633647       -6.72570425923175
C            3.24110246336921        0.21733012548641       -4.95746488588057
H           -1.99124752975996       -2.10828288784667       -4.75905407838220
H           -1.85303377732509       -2.87716351401228       -3.17695650681862
H           -0.56726606239265       -1.81481919378613       -3.75500389165666
H           -3.40934466965830       -0.94832568628992       -3.03574242954206
H           -2.16786031284839        0.12076522942842       -3.69742184325606
H           -1.91269306352386       -1.41629107140698       -1.07268096742526
H           -2.37912000744383        0.30232210427825       -1.21989779570490
H           -1.30291717727606       -0.19158599506467        0.72963739686299
H            0.22142700721239        1.17421235143300        5.15511421811305
H           -0.36420833486148        1.55877638546095        7.49010325457417
H           -2.26757664852242        1.15531324884124       10.56699932873540
H           -1.79611078359891        2.24297275906880        9.23873374982791
H           -0.71186199436166        0.91151688710469        9.73637326979492
H           -3.60489657394987       -1.21118307613886        7.14505258957953
H           -2.99895569264067       -1.59656571901956        4.76160906735656
H            2.51852453297702        0.56823297935627        2.44869232559902
H            3.50584418013211        0.66912467630375        0.16533617593529
H           -0.12556454127764        0.49631918048283       -5.02048957920391
H            0.32705663886792        0.53649950957955       -7.47121765394062
H            4.07792943596426        0.14074278038235       -4.28263596110402
