56
 energy: -110.555655291502 gnorm: 0.000091350134 xtb: 6.7.1 (edcfbbe)
C            3.50540854321114        5.71076499682316       -5.89074644487799
C            3.04370330438653        4.35075149708159       -5.37917746150184
C            2.27687435496624        4.43531003087373       -4.05921435773315
C            0.88954053239131        5.07519165842571       -4.17841667636732
C            0.33700977589701        5.43508931951055       -2.79335629866593
O            0.06936962437351        4.27205839505852       -2.03279455151522
C           -0.83385271743092        3.42758440086185       -2.68327343100027
C           -1.08516795011041        2.20408117521398       -1.83415067289728
C           -1.64257843497385        1.07391642282125       -2.41510723680966
C           -1.88529786106448       -0.03825537680305       -1.63232538215343
F           -2.40077515556671       -1.12745516935363       -2.21112016649398
C           -1.57835248251108       -0.07372104997751       -0.27189948765068
C           -1.88359649626273       -1.28332015338367        0.55217589658373
O           -2.89645951513314       -1.91857202416579        0.47133361757534
O           -0.86263272787734       -1.52086349463441        1.39125167814466
C           -0.84847311472715       -2.54858005001626        2.30901297366046
C           -1.57090691126568       -3.72910529867151        2.19301098693010
C           -1.44215100902557       -4.70032566619338        3.16819824454314
C           -0.59465196997008       -4.54312227392547        4.26242437281650
C           -0.47192660292049       -5.59575831779213        5.28236750458724
C           -1.61131693022503       -6.25498629729341        5.73755415261000
C           -1.50218332243692       -7.25033425921278        6.68862252342667
F           -2.60884251453321       -7.87052574621664        7.12111288448494
C           -0.26466861750796       -7.62064339304709        7.20447747766156
F           -0.16549532946869       -8.59007219979089        8.12162381653270
C            0.86618090606691       -6.95669448526399        6.74103850665652
F            2.07024132257527       -7.30081104503729        7.21616151825123
C            0.77180438749580       -5.95473795833199        5.79444519568080
C            0.12099616228037       -3.34779535174201        4.34036538322533
F            0.93828984139275       -3.12471467496914        5.38670891795435
C            0.00356487191432       -2.35486331405693        3.39159630366041
C           -1.01229499987321        1.07856445464854        0.27128661369101
F           -0.71848670535773        1.11170146751468        1.57850323002389
C           -0.76957720162625        2.20978346849718       -0.48401626181215
O           -0.37267624653923        3.01079925140031       -3.93721830109274
C           -0.12236988019966        4.10452642869517       -4.80058243628152
H            4.10236896243204        5.59046326942869       -6.79162175679883
H            4.11430941714032        6.21217949894365       -5.14172274958744
H            2.66080223305460        6.35169411853055       -6.13132224468386
H            3.92186001459619        3.72143581751173       -5.22034449378926
H            2.42905975770825        3.86558687476801       -6.13932345669098
H            2.87067116650431        5.01234908176974       -3.34672635325813
H            2.14945801530595        3.43173184884305       -3.64843210264731
H            0.93691241698578        5.98378410024843       -4.78258674890244
H           -0.59048597920222        6.02098581100318       -2.90213531619184
H            1.05619643224792        6.00977225657799       -2.20810879144583
H           -1.79860547271544        3.97771918689416       -2.82389800167888
H           -1.87200405923361        1.05319626130393       -3.46752908410975
H           -2.23108541544415       -3.88867663317646        1.35717137527163
H           -1.99603939633581       -5.62045256438432        3.06688422277286
H           -2.59085956661556       -5.98738896349657        5.37543558178062
H            1.67659249448398       -5.47241571867749        5.46229860348920
H            0.55915117448987       -1.43612668886768        3.48550440798866
H           -0.32878382640554        3.08168624679295       -0.03046853269827
H           -1.06718099700551        4.63300190264957       -5.00699544676334
H            0.24943369764562        3.66460892576852       -5.72597174392808
