55
 energy: -113.616710890159 gnorm: 0.000126931722 xtb: 6.7.1 (edcfbbe)
C            3.34718096319678        5.07319983524592        5.69367014348787
C            2.81570116910306        3.65501574969219        5.52929241391355
C            1.55735684612151        3.39034919775883        6.36232157753709
C            1.24839003763868        1.88901587525265        6.42539345876031
O            0.87354160954241        1.39250177428325        5.15397588382514
C           -0.23523309932177        2.07152266617343        4.64089634105588
C           -0.59088224460980        1.50449827797051        3.28704845504582
C           -1.35356878789971        2.26004624804636        2.40820823249572
C           -1.69077918111196        1.73013527793457        1.17769829668333
F           -2.40378564905033        2.47997100174102        0.33391379065720
C           -1.28006711662137        0.45761165407695        0.77575525879111
C           -1.69013974185895       -0.08855129065517       -0.55136555121831
O           -2.76789600549459        0.06893476783134       -1.04762108439639
O           -0.66525592463364       -0.78245746284765       -1.08593445993086
C           -0.70621772169099       -1.43132314844109       -2.29371177074751
C            0.37791312104678       -2.27622468219793       -2.53843993788011
C            0.46919618539437       -2.97022907111322       -3.72596301700091
C           -0.50580462080162       -2.83898535135384       -4.71310843549814
C           -0.40966393467896       -3.63402571110112       -5.95157346310415
C           -1.42695338569441       -4.51363926870281       -6.30828503572018
C           -1.30929262343839       -5.26937540470584       -7.45850468317881
F           -2.28676248218258       -6.12046267840352       -7.78844995690256
C           -0.18602123107876       -5.16858499948679       -8.27380795704059
F           -0.07907097750264       -5.90328633454512       -9.38560937318831
C            0.82591218804317       -4.29186238976375       -7.89936945085817
F            1.92120884559656       -4.18362987887458       -8.66165993268244
C            0.72613580220311       -3.53675084342510       -6.74596958500573
C           -1.56917719892814       -1.97269171308535       -4.45663583512913
N           -2.56824083705863       -1.71302407504986       -5.47258018165023
O           -2.21170240195021       -1.76783476370153       -6.62932454851117
O           -3.68307526962240       -1.44070182307387       -5.09658922831703
C           -1.68961606091940       -1.27756189581414       -3.26003646161704
C           -0.50790670588425       -0.26544757752186        1.68476691821564
F           -0.10264491623190       -1.50276459013864        1.36496319370773
C           -0.16672679250784        0.23414356959494        2.92658612467693
O           -0.00908041059949        3.44519473893240        4.50490604270754
C            0.32096810594170        4.05220012732324        5.74067474606089
H            4.26143882958578        5.19598181737305        5.11856789134358
H            3.56975269914197        5.27936393432115        6.73866451033034
H            2.62781452460677        5.80878591219574        5.34353716595715
H            3.59056031397913        2.94846651129232        5.83465109169794
H            2.58440163852426        3.46355734184641        4.48004835535335
H            1.69655203797623        3.76793738387603        7.37927424816529
H            0.43294987917882        1.70541083864961        7.14392987753365
H            2.12321337639644        1.30808672479813        6.72076811123925
H           -1.09932141913073        1.91985474568246        5.33631394110612
H           -1.66984052632871        3.25566139234848        2.67155020639484
H            1.13235128316897       -2.37610579309166       -1.77451662918351
H            1.29848028138016       -3.63889893885451       -3.89624774905113
H           -2.31296767723192       -4.62489354515812       -5.70279557069591
H            1.52465796565494       -2.85818452808474       -6.49266180278858
H           -2.53953250577722       -0.62857681557210       -3.11253421599084
H            0.43355778119972       -0.35257491392656        3.60165272103076
H           -0.53347810856029        3.96701714017076        6.43130050457227
H            0.49143007377750        5.10414498429011        5.51300641490863
