53
 energy: -102.606620130919 gnorm: 0.000195566424 xtb: 6.7.1 (edcfbbe)
H           -5.40248308907439       -7.66572776280999        1.64371601448585
C           -5.52786394822577       -6.85165581479257        0.94554074732563
C           -4.53410147232469       -5.91267034107788        0.77621811832919
H           -3.62966724516531       -5.98678167894274        1.36007482871500
C           -4.68908488327438       -4.85079074854909       -0.11891078829695
C           -3.63073532789627       -3.85188708636938       -0.29504862405115
C           -2.28899060962978       -4.22084969355246       -0.28548587833271
H           -2.02136645764523       -5.26070728302526       -0.16985916929372
C           -1.28362990727103       -3.28810151676054       -0.45919602509709
H           -0.25725345604529       -3.61945929002308       -0.45813619063763
C           -1.60225358781799       -1.94459656746193       -0.63704550313651
O           -0.70634248987276       -0.94473381594382       -0.81267684132232
C            0.67553801120847       -1.24676016006052       -0.81305784594101
H            0.96292696999554       -1.70162081516880        0.14484303743687
H            0.90545899833639       -1.95263690069449       -1.62297954935419
C            1.43965810602645        0.05606023188205       -1.02498518095598
H            2.49647053314296       -0.17862643831431       -1.16159810567134
H            1.07091752941041        0.52689760413974       -1.93754671352197
C            1.26469954651820        1.01463043482091        0.15049392263226
H            0.19933659877818        1.19776157430782        0.29899627292228
H            1.65527081747274        0.54841764991094        1.05772516663776
C            1.98504847902316        2.33796093973553       -0.08935150471677
H            3.04837613494282        2.15012158158275       -0.24677399958178
H            1.58771670559275        2.80690971564178       -0.99235831767238
C            1.82067846460686        3.29317318459971        1.09074489171136
H            0.76378166917657        3.50737365089885        1.25478032182293
H            2.22218346558988        2.83031789264516        1.99308306331206
C            2.54489640636891        4.61355562541165        0.85764465597913
H            2.21872270043245        5.06491432052062       -0.08552785646618
H            2.34155471867025        5.31081804556767        1.67757196088867
O            3.93986767510171        4.32116533150991        0.80216759217070
C            4.84220604963868        5.27238413298451        0.55719897338620
C            4.62639143530128        6.64275308866109        0.37377276573974
F            3.38926351393849        7.17078136593465        0.43155012187060
C            5.67890917951318        7.52082013621041        0.12548287320880
F            5.41607652030740        8.81772322055269       -0.04245482166377
C            6.98628811688377        7.06136976510492        0.05316644815950
F            7.99133789522551        7.90671014300875       -0.18480493215954
C            7.23235582399285        5.70168921419466        0.23271515897290
F            8.47921940813271        5.23432364007169        0.16684777296764
C            6.17890442069297        4.83679724844430        0.47702282101517
F            6.42439653133155        3.53221084097025        0.64356368237451
C           -2.94789032996616       -1.56563835525471       -0.64070826414455
H           -3.18434480839371       -0.52179928456511       -0.77368740747173
C           -3.94132954983345       -2.50282861735424       -0.47928482736428
H           -4.97276725677351       -2.18431418262168       -0.46729052149329
C           -5.87599081841308       -4.75669069980387       -0.84513389905560
H           -6.02812548904038       -3.96443184640974       -1.56108917926835
C           -6.86543881823300       -5.70072179742545       -0.67420786825390
F           -7.99666724351706       -5.59083508240458       -1.39254688178347
C           -6.71814669814482       -6.76373049284046        0.21899820381074
C           -7.73512698668099       -7.72845569432001        0.39196400215000
N           -8.54884195211301       -8.52058861277236        0.54585327867866
