70
 energy: -147.268656010240 gnorm: 0.000613559701 xtb: 6.7.1 (edcfbbe)
C           -2.81822382149455       -9.60135467939484        8.10198929135647
O           -2.44395790099492       -8.25733136288959        8.30444420442978
C           -2.60941549164537       -7.37518590686846        7.29184703966637
C           -3.14284116234205       -7.67981060670600        6.04107589769882
C           -3.24120186783642       -6.67931388925854        5.10045489206253
C           -2.82581589875031       -5.37226403870060        5.35000319783768
C           -2.95671496902258       -4.42567630125610        4.22834651432341
O           -3.45578617297403       -4.72230794369417        3.16813883549453
O           -2.44587216153113       -3.21090386689492        4.51897077415966
C           -2.27547052595722       -2.18398282122686        3.63070674017612
C           -1.77427993900981       -1.01108528659767        4.20326339727374
C           -1.48518773655416        0.07647714834555        3.41346763999233
C           -1.69286335631868        0.01649555001224        2.03363680907209
C           -1.27774758672758        1.16935714732835        1.21305599999754
O           -0.73572903216744        2.15784271904936        1.63769856938035
O           -1.57376137591498        0.98319785573411       -0.09870122254873
C           -1.04740748571925        1.80493249116741       -1.06960145814004
C            0.26896597129837        2.24830660056369       -1.03744075695153
C            0.76654430655541        2.98236651016851       -2.09477980165013
C           -0.02638345087831        3.27703602547760       -3.20286850968991
C            0.54194523720616        4.00456022095225       -4.34239968438977
C            1.47547827287561        5.02161920213370       -4.14793985166123
C            2.04311705039769        5.65465010121894       -5.23279009214483
F            2.94268358445553        6.62189673146510       -5.00111302646425
C            1.73007997278320        5.31583992803279       -6.54967371985016
C            2.39532969432143        6.05045583379932       -7.69795544955964
F            2.21417998797500        5.39775841408945       -8.87602868069068
F            1.80690649366512        7.25544828779195       -7.87600332191150
O            3.72715428335152        6.32044289472084       -7.52043729294095
C            4.57857887830248        5.32817570361385       -7.11492115577790
C            4.31531996319965        3.97224559569385       -7.26103206105145
C            5.25027405336696        3.05354867071171       -6.81320752048704
F            4.98405103609950        1.74930633540367       -6.94246127329856
C            6.44682639664276        3.45531395996217       -6.23401519503226
F            7.33756998320668        2.55496441361384       -5.80220567116695
C            6.69472195135055        4.82105050911105       -6.11545222689240
F            7.84002398151687        5.23384404307879       -5.56545629561962
C            5.77309832510399        5.75505130301243       -6.54299559670239
C            0.76806007184467        4.32104192388978       -6.71872293882597
F            0.39938779009750        3.94581452526041       -7.94767979561788
C            0.18768137706692        3.67098563856642       -5.64728973536207
C           -1.34888281995271        2.83342716464229       -3.21527905130163
C           -1.85864754043020        2.10915543834118       -2.15795467059724
C           -2.21794364859821       -1.14450388017292        1.47228470181830
C           -2.51159899938288       -2.24076694557176        2.25996429600820
C           -2.29528067899117       -5.05982943108396        6.62277184724417
O           -1.91166481586770       -3.78901977657486        6.85840282109036
C           -1.38812192798619       -3.45074370561923        8.12182728349649
C           -2.19862627386460       -6.07088001488435        7.56765518163315
H           -2.58599983491066      -10.11379678940422        9.03403303714978
H           -2.24841102670459      -10.05655644544195        7.28649169619103
H           -3.88867612698157       -9.69234199598480        7.89548576361500
H           -3.47376481890080       -8.67546582625609        5.79722762616598
H           -3.64656102888946       -6.89088002469762        4.12261652885436
H           -1.60984274984823       -0.99447412640632        5.26874070361817
H           -1.08392363069453        0.98365852487087        3.83881960685962
H            0.89923732912770        2.01394359447774       -0.19481646076572
H            1.79894758210929        3.29550059816066       -2.07522633212344
H            1.75521448157328        5.34168499917558       -3.15758510356022
H            3.42091831026682        3.59956154819435       -7.73322210833607
H            5.96987392136765        6.80811828459561       -6.43362871222893
H           -0.52288508836022        2.88595065385426       -5.84910305364119
H           -1.98998952983407        3.07819435008408       -4.04807526187037
H           -2.88025468001967        1.76324353050034       -2.16280681313388
H           -2.38601722986925       -1.19423071775613        0.40792666600593
H           -2.91037223274756       -3.13636316385133        1.81379954115486
H           -0.46914583221312       -4.00381456850620        8.33802055648476
H           -2.11651279797866       -3.62510922067773        8.91942717157128
H           -1.16244867379938       -2.38689662115270        8.06764128585104
H           -1.79793836448153       -5.88758501338219        8.55061378430468
