46
 energy: -110.717316784620 gnorm: 0.000238982330 xtb: 6.7.1 (edcfbbe)
C           -2.01284635914015        8.31308553087736       -3.94466620636829
O           -2.10166350398805        6.91807877988004       -4.15324460353089
C           -1.87009971543273        6.08813939853993       -3.12701000148659
C           -1.54487642446385        6.49112503428412       -1.83222425343765
C           -1.33005722013976        5.53563810081751       -0.85833714798421
F           -0.99603227906264        5.96384663380892        0.36147270595888
C           -1.40342408686126        4.16378149994148       -1.10628029223365
C           -1.15577844457339        3.18663727624613       -0.01722113956094
O           -1.40699085199923        3.36939031405965        1.14039674194191
O           -0.60477664074774        2.06273054685460       -0.53276573110959
C           -0.21405471426930        0.97760303067012        0.20063316149999
C           -0.04272143395166        0.94840737840067        1.57990435768564
C            0.41234423109173       -0.21345037232823        2.17196075607110
C            0.69657707504046       -1.35681084132307        1.42950286025114
C            1.18742273227093       -2.53504999729262        2.19757094328017
O            1.79684677017695       -2.43990103107890        3.22779573988537
O            0.80609871801845       -3.68727851929945        1.61637953019695
C            1.20060822761864       -4.93815360972640        2.01259968936844
C            2.21240273318485       -5.20176759848858        2.92795204499032
C            2.53393855913885       -6.51843610037143        3.19813205333324
F            3.50975463100110       -6.76758784021621        4.07572302602074
C            1.88208936426198       -7.59357329393083        2.58919524290581
C            2.23181848972383       -8.93272340487831        2.88201817545406
N            2.51573481899585      -10.01540875987296        3.12090016806681
C            0.87042697218131       -7.28316505421561        1.67318439827251
F            0.21950263087238       -8.27855883487862        1.06439502333936
C            0.52551575691643       -5.98231619205600        1.38054808669739
C            0.53494072727629       -1.31171776387722        0.03832573742404
C            0.89038948370574       -2.47403568938477       -0.85811250389597
F            2.06583622850028       -3.04006590983948       -0.53825164407647
F           -0.03013691434308       -3.45234193599409       -0.84405751103910
F            1.00465117074963       -2.10237506919913       -2.14054103240080
C            0.08041282494157       -0.15240441470779       -0.56345062940204
C           -1.73172820459411        3.79627300700454       -2.41691527631064
F           -1.85655432868377        2.50029554283980       -2.72745793726186
C           -1.96813446569900        4.71996748341166       -3.40685327352457
H           -2.23273574062254        8.76636118788546       -4.90922193246308
H           -1.00794299951685        8.60447841895315       -3.62731767440798
H           -2.74559231383073        8.65304424169847       -3.20798047357412
H           -1.45218333816009        7.52810125079798       -1.55598001460888
H           -0.25886225060742        1.81588700255028        2.18148204785940
H            0.56153685369179       -0.25278890081503        3.24006881550662
H            2.74849330860369       -4.41353471990527        3.43003272479415
H           -0.24852007266811       -5.76651081107206        0.66239786219225
H           -0.04355282773556       -0.09050271281136       -1.63338479761851
H           -2.22805717688125        4.39753771804158       -4.40132781670903
