44
 energy: -83.094353868094 gnorm: 0.000107162530 xtb: 6.7.1 (edcfbbe)
C            7.29245746681684       -0.94746335774044       -1.48561035193677
S            5.54159411198611       -0.56096749352948       -1.13171054860784
C            5.44017335398193        1.14945073091664       -1.46929102994032
C            6.53157473870069        1.90974444711874       -1.89067568113320
C            6.39743547630483        3.25863889795680       -2.14382790976086
C            5.17245077208969        3.89499834644265       -1.98643089446510
C            4.08191947545003        3.16349765748267       -1.57174044569742
C            4.19794757237067        1.79750444172639       -1.31003521756295
C            3.05088176096459        1.00255557024855       -0.86724348681947
O            3.11860405545773       -0.18104819927669       -0.62144007219971
O            1.92706973916534        1.74730566860459       -0.76104033652263
C            0.69629648937498        1.27228465762347       -0.38023255813102
C            0.35688478644075       -0.06665972985834       -0.21283499875471
C           -0.93020119562961       -0.40082388561899        0.16259963193018
C           -1.89107866724339        0.58515042668540        0.37079328154954
C           -3.27702119023225        0.27770059343520        0.77916003882511
O           -4.13427356638896        1.10757145181810        0.94238907918048
O           -3.45051312278241       -1.05780979351607        0.94060516443966
C           -4.60875954642806       -1.66821804141146        1.34289558559500
C           -4.55103876553509       -3.06619200102728        1.32752294001619
C           -5.63790748757430       -3.81057373078692        1.72286495371077
C           -6.79414045907938       -3.15629865445009        2.13810153916576
N           -7.93442737043073       -3.92908232405090        2.55526333303724
O           -7.83619363809200       -5.13777340491300        2.52520936301563
O           -8.92408736569215       -3.32615913634796        2.91239363621933
C           -6.85920142239667       -1.76930849756091        2.15608303192791
C           -5.76903817176897       -1.01951321208941        1.75981333274056
C           -1.54390864680678        1.92618556919311        0.19291428218282
C           -0.26439625459378        2.26685826924286       -0.17795082445506
H            7.38347005936660       -2.01113893016598       -1.28908316057312
H            7.95010671664046       -0.39924548947559       -0.81878492141473
H            7.52695196929711       -0.75071956374341       -2.52675894303048
H            7.49685507664781        1.45159178920685       -2.02341087146782
H            7.25956891126115        3.82241219575961       -2.46820691699076
H            5.07782052598447        4.95068299560662       -2.18706688235966
H            3.12143812010775        3.63647715555477       -1.44316689943402
H            1.09159281077308       -0.83887576601505       -0.36797885303547
H           -1.18982951605100       -1.43913048623808        0.29368075806230
H           -3.64018889454401       -3.54246800906712        1.00186257967467
H           -5.61288333056542       -4.88935253532134        1.71837049647951
H           -7.76852474875679       -1.28892219380581        2.48353485304599
H           -5.81965120369631        0.05613064129618        1.77190244945711
H           -2.29587144402489        2.68317920216248        0.35417775042995
H            0.02004201912856        3.29784372792632       -0.31763627639004
