66
 energy: -114.359650407778 gnorm: 0.000546701377 xtb: 6.7.1 (edcfbbe)
C           -2.09337009880242        4.15386679483784       -4.78193953021959
C           -2.61364965464386        2.85004370180315       -4.18844162370273
C           -3.83467228696741        3.08122519102775       -3.29867225104359
C           -4.31718766130139        1.80249756249583       -2.61076812059228
C           -3.39997457807343        1.38920780705669       -1.46281686292487
C           -3.72337796609685       -0.00281198842060       -0.92348167497240
C           -2.68888743922164       -0.43777309864183        0.11248968836492
O           -1.42462886206753       -0.37582563406770       -0.52508283567838
C           -0.29660778632586       -0.55422282151798        0.16212183324773
C           -0.24375860090213       -1.01661234874751        1.47389169878852
C            0.97601943265580       -1.21388257587693        2.10747914599848
O            0.90628707039978       -1.72252224501768        3.38327792471787
C            1.80383781817750       -1.37727041847502        4.34549235547913
O            2.67086708664848       -0.55617407941729        4.18903293066157
C            1.55691380414574       -2.10920751175290        5.59882069487378
C            0.58758634940731       -3.10205601800561        5.70981627750164
C            0.39420408003972       -3.76738584070277        6.90417499710665
C            1.17187461288603       -3.44753500139626        8.01693711338949
O            1.06582465233831       -4.03302415138769        9.23037972927278
C            0.10582882467164       -5.04694430471531        9.42124534691427
C            2.14775307528178       -2.44919632287058        7.90563633677440
C            2.33705165919466       -1.79236927665744        6.71499492824880
C            2.17254685959910       -0.96593018238196        1.44255948982487
C            2.12713276415491       -0.49321639660763        0.14902007622562
C            0.91843578194092       -0.26947879283858       -0.50855165833324
C            0.88413271441178        0.30570396448863       -1.85980196776771
O           -0.07678141324975        0.74847937282934       -2.42819809992526
O            2.13364204812799        0.27811961049614       -2.42845947639193
C            2.40616311856540        0.80075935711208       -3.65635568879996
C            3.53055122123933        0.26862505135149       -4.29790253915652
C            3.91398797141583        0.74677779212564       -5.52695568892795
C            3.18967069740007        1.75929936922144       -6.15652657012733
N            3.62315714170523        2.20992600882981       -7.45752034335493
O            4.72789203275298        1.85688741073302       -7.81485067968636
O            2.87055998365704        2.89324613249489       -8.11009961548485
C            2.07806595129038        2.29112605757841       -5.50326629135003
F            1.37275604630482        3.28574905223472       -6.03813229539370
C            1.68717852125672        1.82734106479958       -4.25868557893889
H           -1.23995439498189        3.97080277715916       -5.43033181753426
H           -1.78490135968943        4.83668465831242       -3.99248450827095
H           -2.86818623398092        4.64272817728373       -5.36927472673422
H           -1.82193168486898        2.37262894685744       -3.61040216830161
H           -2.88613234845383        2.16790256836765       -4.99701633165285
H           -4.64329566569878        3.48650578580698       -3.91216783826246
H           -3.59352402887097        3.82814027855352       -2.53846746600164
H           -4.36020598906219        0.99815373633742       -3.34823626442405
H           -5.32973556475849        1.95417635357317       -2.22760096064698
H           -3.47647050948723        2.12083934720256       -0.65465950667431
H           -2.36896116528581        1.37467830184554       -1.81194636076288
H           -3.70594971166295       -0.71645582242194       -1.74830027160614
H           -4.71449641635637       -0.02621016465745       -0.46685250163139
H           -2.89358184474886       -1.46027505335608        0.45752979113330
H           -2.70350749160764        0.23990194248384        0.97609911619628
H           -1.14387235511767       -1.23685930568130        2.02434434046144
H           -0.01652946353003       -3.35661197905745        4.85309560722102
H           -0.36267219486195       -4.53366764354495        6.96045281789934
H            0.20895567473542       -5.35657498369928       10.45976952502350
H            0.29325528559190       -5.90457569777817        8.76799862051602
H           -0.90936474685959       -4.67435121249563        9.25418905155533
H            2.73965201198955       -2.21602191542189        8.77618238447895
H            3.08672487892678       -1.02218236145304        6.61882422940085
H            3.11643042052272       -1.12509939398257        1.93520105428879
H            3.04809427934518       -0.27904152454864       -0.36885369673443
H            4.08218437671119       -0.51822961501902       -3.81009134800344
H            4.77770113903807        0.34826100094326       -6.03709406985555
H            0.82329013106655        2.26929050628540       -3.79072787582939
