49
 energy: -74.292591647161 gnorm: 0.000142283356 xtb: 6.7.1 (edcfbbe)
H           -2.27038831957971       -8.48820174822457       -1.89073683161959
C           -2.62777841708648       -7.69214924621964       -1.25385215969820
C           -1.98311182689656       -6.47374051963466       -1.22370995824736
H           -1.10439297103554       -6.31992951800220       -1.83242360592227
C           -2.43494665063692       -5.44447332504252       -0.39645442345170
C           -1.74440762086156       -4.14981927461405       -0.36481709186678
C           -1.27170738513513       -3.56200061410799       -1.53679585950301
H           -1.42624438971012       -4.05998384966325       -2.48316936611164
C           -0.63572101309971       -2.33793683843610       -1.50591853231349
H           -0.27026219416577       -1.90358141069068       -2.42494904739523
C           -0.43698976285714       -1.66452698085046       -0.30168721313937
C            0.23621039837643       -0.36064627361589       -0.26531428507458
C           -0.00683719111585        0.59822572868206       -1.24269495016060
H           -0.70928170022348        0.38576831355739       -2.03533866784088
C            0.60769729871775        1.83707673125843       -1.20801842851604
H            0.38351022996913        2.55395944863337       -1.98240376500702
C            1.49693246065585        2.14351361225437       -0.18349790022333
O            2.15540743220800        3.32394041048983       -0.04249457706316
C            1.92931495912084        4.35294380054319       -0.98334595569614
H            2.24113210931166        4.02410113617698       -1.98460767360292
H            0.86138017002017        4.61095099430511       -1.01380680880784
C            2.74693845086947        5.56764646930202       -0.55518017940464
H            3.78939529781416        5.26357714699486       -0.45140243817740
H            2.68485566031363        6.32394332472211       -1.33932866828523
C            2.24902363262911        6.14226381254250        0.76917494745364
H            1.20479383823878        6.44594674524086        0.66181853338965
H            2.29385125836879        5.36017756934108        1.52863297734039
C            3.08280583015998        7.33990502357640        1.21293127362390
H            4.12713341181227        7.04504688712077        1.33185243677480
H            3.04103816524864        8.12603684604054        0.45593849011450
C            2.57786248890066        7.90268431209283        2.53324541931618
H            1.54465298223508        8.25681914023542        2.45232791249219
H            2.65610125223495        7.16760793261435        3.34098686122659
F            3.33512374953942        8.98584008111759        2.91174028599220
C            1.75537348886246        1.18223645437554        0.79628354002330
H            2.45422004737722        1.42683431166629        1.58076597737270
C            1.13248136247917       -0.04413304353187        0.75665036221191
H            1.35840133179382       -0.77867279286048        1.51527432643581
C           -0.90051992781678       -2.25922638900744        0.87094948336378
H           -0.76861029913553       -1.74915945452267        1.81386697274446
C           -1.54868494115262       -3.47645626104614        0.83979062110379
H           -1.88998653132617       -3.92358791554143        1.76228560322827
C           -3.55792644828569       -5.66830094298675        0.40172480369791
H           -3.92938477080237       -4.87348852308933        1.03148441380232
C           -4.21413576394065       -6.88046220863469        0.37694403701810
H           -5.08654760174653       -7.04655356184017        0.99197683536459
C           -3.75089811182703       -7.90320661632788       -0.45235766003659
C           -4.41751003886659       -9.14814459584484       -0.48012833082292
N           -4.95937342995508      -10.15865432855077       -0.50222173609727
