53
 energy: -77.248640569330 gnorm: 0.000159938664 xtb: 6.7.1 (edcfbbe)
H            3.33261647638175        4.29505720932957       -0.19855554506055
C            3.43968596785224        4.77397991850674        0.76132073024202
C            4.11980826296651        5.97354122158431        0.83121120262381
F            4.61064132784394        6.51831411889210       -0.29262013897289
C            4.30856687478269        6.62563089902772        2.04463703169940
F            4.96781964632063        7.79053650300404        2.10579058982051
C            3.79366988581040        6.03416615344196        3.19293503059703
F            3.95651676766824        6.64381371716493        4.37714361404104
C            3.11503851437724        4.83300977353822        3.13715249143701
H            2.71792198175299        4.41998862181282        4.05036319024875
C            2.92843800159820        4.18715487335263        1.91689281604584
C            2.20696963869582        2.90977679416573        1.84948513711801
C            1.33539584773973        2.63691119299705        0.79710434183596
H            1.16893605930995        3.38364133605995        0.03492841211972
C            0.65766295905655        1.43611369725932        0.73562393967460
H           -0.01545890633531        1.25767237819350       -0.08941984071222
C            0.82919155601123        0.46365033941398        1.71535860516203
C            0.10726362435766       -0.85460188070745        1.64768519675476
H            0.36466496507073       -1.43507790040523        2.54127781301100
C            0.54616002748211       -1.66002225809414        0.41947765326236
H            0.33181311915688       -1.09428555773921       -0.48758970289346
H            1.62662084250460       -1.81906598651214        0.45787589056243
C           -0.16633137347217       -3.00855727331417        0.37746726103997
H            0.15622296105635       -3.56502501421753       -0.50348006096722
H            0.12865341838231       -3.58878546288242        1.25567366458418
C           -1.69240057301790       -2.86749966945717        0.38172984501216
H           -2.12225799220955       -3.86920849800069        0.50576511021457
C           -2.25336373922947       -2.29622455870277       -0.92640308249147
H           -3.30560608550350       -2.04541527662964       -0.76853091573518
H           -1.73545619991665       -1.37502596503697       -1.19332221907362
C           -2.16111279292608       -3.27212712907034       -2.09774673551374
H           -1.11524622135609       -3.50167692542806       -2.31033399281198
H           -2.65674468316383       -4.20820996328258       -1.82883233481924
C           -2.80723212243487       -2.70598621372811       -3.36016700548945
H           -3.85723045861527       -2.47924804163592       -3.15954919676637
H           -2.31373415736426       -1.76907278083181       -3.63056443106029
C           -2.71837293006132       -3.67705272913263       -4.53493021241347
H           -1.66875844262271       -3.90389008349405       -4.73636126929932
H           -3.21234819447294       -4.61350094039430       -4.26558705774923
C           -3.36322128448764       -3.10839214777776       -5.79283933820228
H           -4.41536027811501       -2.89366537403947       -5.61846954905908
H           -2.87101810505308       -2.18471154116916       -6.08990579462229
H           -3.28925734877434       -3.81619044049519       -6.61517989170058
C           -2.11187996506557       -2.02779227682606        1.59414048969876
H           -3.19430312073746       -1.88272840107056        1.58578894149099
H           -1.85982831061627       -2.57645485384603        2.50538005499638
C           -1.41388893810833       -0.67162415311858        1.62729012651981
H           -1.72471006618363       -0.12004115834158        2.51790809793801
H           -1.70825673313522       -0.08486239953985        0.75721716259488
C            1.70196823829835        0.73792974897109        2.76170106151442
H            1.85698535610815       -0.00358165715533        3.53252279824392
C            2.37810947045241        1.94016443720404        2.83425165921564
H            3.06604723194941        2.11854157806827        3.64724835616253
