49
 energy: -113.880364760266 gnorm: 0.000083147555 xtb: 6.7.1 (edcfbbe)
C           -7.55880138217219        2.58502818575102       -2.57761861626941
C           -7.98901194353035        1.36404973914221       -1.77224727393489
O           -7.38151470464202        1.32263251490969       -0.48945582230373
C           -6.10232367090152        0.94684118107036       -0.35098241854238
C           -5.27010161643894        0.46887028235176       -1.36422999603244
C           -3.97241710051968        0.09876174659959       -1.07661630810682
C           -3.45728371067988        0.18317758766931        0.21375131854959
C           -2.07445584085469       -0.26380291835854        0.49302174629848
O           -1.68576223561439       -0.77703860705563        1.50220280198588
O           -1.28574193176606       -0.05327423116520       -0.60117049578268
C            0.06659137298193       -0.25944038006411       -0.55415722821202
C            0.66876779108016       -0.70081423204753       -1.72874147240820
C            2.03972781516739       -0.85150070712759       -1.76865288817021
F            2.59013137636069       -1.29514751466180       -2.89854543715300
C            2.85383124235821       -0.59002892356522       -0.66277801078597
C            4.33529404529243       -0.71391827610811       -0.77002795598881
O            4.96287176179183       -0.49925207066915       -1.76714169436697
O            4.85062611114787       -1.07751614550251        0.42244496453255
C            6.18972232073067       -1.20216292980015        0.67938225605700
C            7.17085365058355       -1.38938571991463       -0.28724418826460
C            8.48487798734830       -1.52134306145104        0.12116420357066
F            9.42587786826003       -1.70041869368685       -0.80980228887322
C            8.86427043537188       -1.47977870994767        1.46511018929568
C           10.21691097258317       -1.61496846498544        1.85714226213273
N           11.31119901959240       -1.72387625306122        2.17411274368348
C            7.84405892736441       -1.29732418482703        2.40571309155512
F            8.15829595809557       -1.25272849451103        3.70353251797260
C            6.52553778454971       -1.15979204806047        2.03251758073611
C            2.20661635615039       -0.15632627270810        0.49624593807840
F            2.92752044811152        0.15086414036533        1.57782647200674
C            0.83762584841334        0.01862202243432        0.56804105025190
C           -4.29103161962004        0.67274263518825        1.23028980438389
C           -3.77753235363889        0.85447269880865        2.63908365899855
F           -2.57620254573117        1.45447992458720        2.67199744445473
F           -4.59036920597900        1.63932567383556        3.36763567903047
F           -3.67575085157289       -0.29321179444214        3.31513128941907
C           -5.58720683266330        1.04776618890384        0.94907197287381
H           -8.09535087038523        2.60557231619164       -3.52174777836322
H           -6.49055587546079        2.56784414887037       -2.77948834865156
H           -7.78833815104282        3.49104263007077       -2.02292538544943
H           -7.79252796753760        0.43645318773092       -2.32167367375126
H           -9.05908215237222        1.41823814286494       -1.55740782702640
H           -5.62301585293834        0.37627860599605       -2.37857336933315
H           -3.34001313110980       -0.27601515428264       -1.86551296394632
H            0.07528996951660       -0.91659341550634       -2.60183692265248
H            6.93886821130397       -1.42329738935587       -1.33892278608305
H            5.75609779132641       -1.01478759426246        2.77300837258372
H            0.39573990334096        0.36483393182481        1.48837725264694
H           -6.23280342165102        1.43585670195687        1.72065653932615
