49
 energy: -113.883805229558 gnorm: 0.000092689169 xtb: 6.7.1 (edcfbbe)
C           -8.77958949096925        1.60274354848129       -1.45165801360925
C           -8.40084854570675        2.19942331815389       -0.10104700205025
O           -7.82801277394255        1.23743882319941        0.77423390907431
C           -6.55476170221815        0.85340425149409        0.62672767804852
C           -6.11462479899435       -0.14115063937266        1.50877169255067
C           -4.81957929772607       -0.59749801750665        1.44586065546930
F           -4.43949287468621       -1.53015270075278        2.31972436796145
C           -3.88395096055482       -0.09429136523522        0.53074243755654
C           -2.50545376383869       -0.63881605679389        0.48578290130945
O           -2.19727782276472       -1.75544182512391        0.79114745170552
O           -1.65098194122008        0.31225901226114        0.03439885299326
C           -0.31318325964255        0.12391596888577       -0.17022275166445
C            0.28972488727188        1.06190478974077       -1.00818193778055
C            1.64125553395798        0.99010177478168       -1.25532360479273
C            2.42809270869655       -0.00152029566105       -0.66860234397695
C            3.88248384607607        0.03865963281141       -0.99256659656697
O            4.31179397827911        0.43925655955644       -2.03985326254120
O            4.61995643726982       -0.35939179171577        0.05964283946676
C            5.98201078687659       -0.50762704357127        0.06259614595685
C            6.52467592601132       -0.79102891905835        1.31611335066898
C            7.88310152389301       -0.98328974262222        1.43549069863678
F            8.39625627153881       -1.25163795696018        2.63948497332732
C            8.74233022539582       -0.90295778512138        0.33352324785730
C           10.13723403095001       -1.09832276924210        0.46564785846392
N           11.26605472733020       -1.25446261966754        0.57174698917355
C            8.15755191504590       -0.62178053819594       -0.90361198356276
F            8.93945048016561       -0.53968238208691       -1.98377901827165
C            6.79860350230457       -0.42303383713949       -1.05865274444525
C            1.81176827154222       -0.95115819319796        0.15100192417075
C            2.58069438680613       -2.09817888477715        0.76338166163365
F            3.45002823805567       -2.65994764253206       -0.09317948495330
F            3.28820993062605       -1.73058603477602        1.84734455513723
F            1.77945973441356       -3.08771778464830        1.17153075925444
C            0.44768687896109       -0.88944797582861        0.40334102071183
C           -4.35349704951732        0.89946072546607       -0.32861790537704
F           -3.53947180000257        1.41750803485029       -1.25991006318017
C           -5.65095567984047        1.36968209531852       -0.30325662548997
H           -9.26912308726123        2.35924035752387       -2.05810232516290
H           -9.46360337705560        0.77057606113703       -1.30764955491523
H           -7.90366901287441        1.23854408904345       -1.98251330155661
H           -9.29976079450986        2.53280753663510        0.42337809845541
H           -7.73002500943105        3.05749927779866       -0.21932655642845
H           -6.79831148160581       -0.54609552992719        2.23615151388201
H           -0.32521772772250        1.82780718157617       -1.45307233921769
H            2.12109584670967        1.70250092952924       -1.90828916623069
H            5.88013636643901       -0.86794846583073        2.17642011783260
H            6.40413130846586       -0.20731916084135       -2.03776725858727
H           -0.01993644372088       -1.63607876545339        1.02557955765949
H           -5.92250904727015        2.13175075541422       -1.01458141860122
