43
 energy: -96.738281947708 gnorm: 0.000382161136 xtb: 6.7.1 (edcfbbe)
C            6.52408703260130        6.12883582311737        0.44014710105231
C            5.60009778313810        4.95664729353302        0.37494502768882
C            4.22864312954020        5.11997405511581        0.20144089745769
C            3.38483450029058        4.03067950862985        0.14262406995068
C            3.87807956837253        2.72929955259307        0.25599579875978
C            2.99345285544329        1.54694754534449        0.20156347410128
O            3.32759396542957        0.40965477865767        0.38107983879729
O            1.71778184527444        1.92771755895784       -0.10608269605255
C            0.66137635407758        1.06517261233686       -0.19125585251903
C           -0.45143805666639        1.55736244934482       -0.88068319951226
C           -1.58357041200239        0.78875400807226       -0.99867676607406
C           -1.65478875667501       -0.49297443264446       -0.44187541867932
C           -2.91534838387232       -1.24419470227747       -0.62645549185373
O           -3.89141583331704       -0.78644430145688       -1.15992655008984
O           -2.81936752403071       -2.49894211573394       -0.12749333152352
C           -3.80758477454733       -3.43422119042191       -0.13530404778062
C           -5.09026181796404       -3.25437734349391       -0.64226475230037
C           -5.98950295666271       -4.30316537179723       -0.56704244959769
F           -7.20668115660984       -4.13135974549903       -1.07778522773097
C           -5.64927598129578       -5.53749081225919       -0.01704428781527
N           -6.60948097546545       -6.63107340552129        0.03905456264331
O           -7.71845478506437       -6.36099731644150        0.42599087985451
O           -6.21548871583431       -7.71624904002224       -0.30698246422211
C           -4.35128155903034       -5.68856484530682        0.47625001910743
F           -3.99674851724779       -6.84046877306799        1.04145115469865
C           -3.43945670669890       -4.65666416520826        0.43104237381709
C           -0.53446827221527       -0.95807758104083        0.24733199893389
F           -0.53433356477333       -2.16641302080681        0.82406501970670
C            0.61462153640285       -0.19932588059771        0.38261834818297
C            5.25752462117836        2.57837796651872        0.43309678294927
F            5.79858453606124        1.36117750066991        0.54506976037001
C            6.10517850934010        3.66692804446506        0.49072753254207
H            5.98613786210877        7.06119406859992        0.29422919253528
H            7.29517330743105        6.04428609930213       -0.32378759590690
H            7.02238855734536        6.16041830353907        1.40801325864910
H            3.81886575096105        6.11466182701847        0.11150136582071
H            2.32483039484937        4.17610366389046        0.01012120906737
H           -0.39979553447426        2.54343205927220       -1.31312130879961
H           -2.44906873328930        1.15500185224934       -1.52887615881450
H           -5.40038434490108       -2.32433131135681       -1.09019649767088
H           -2.44592939937323       -4.78377072007379        0.82903493926130
H            1.45249753931933       -0.61110009458178        0.92080291723672
H            7.16233711284699        3.49757959838137        0.62664657375952
