47
 energy: -97.882002096945 gnorm: 0.000572992664 xtb: 6.7.1 (edcfbbe)
C           -5.42883773322645        5.10626620672579        3.54462111060769
O           -4.69424384867550        4.26686653212821        4.40713525664837
C           -3.76102862265762        3.44334026284875        3.88055341116588
C           -3.44780875991711        3.34926473608568        2.52475243590278
C           -2.47337411966616        2.46446873407716        2.11938958209090
C           -1.78285545576426        1.65568370742714        3.02086765501431
C           -0.74621183745640        0.72085177583827        2.56813186614052
O           -0.04979510840327        0.03129873409961        3.26285601320561
O           -0.66972145826310        0.73207120168529        1.19538762675708
C            0.17525987739154       -0.02941093834164        0.44616611792470
C            1.12822922694299       -0.92916931131239        0.92208654616726
C            1.90212503924393       -1.63171545548519        0.02348417537698
C            1.76943467443165       -1.47662531573279       -1.35837847562281
C            2.64237444349931       -2.29355494876148       -2.22798943264508
O            3.47054606310765       -3.06175316967177       -1.81299197043959
O            2.38411531376491       -2.06298639719779       -3.53536409897240
C            2.99323931745630       -2.67667869184281       -4.58924110734961
C            3.93246588176144       -3.69874122315991       -4.50189429915438
C            4.44665710499352       -4.22804458042428       -5.67026629717058
F            5.34751440909407       -5.21166770116629       -5.58043237491712
C            4.06317327402830       -3.77957694876150       -6.93660567542553
C            4.60431491237736       -4.33871019931982       -8.11738878725786
N            5.03538777666572       -4.79338295093748       -9.07540968403569
C            3.11640480929712       -2.74944226893227       -6.98081774178503
F            2.71688438449264       -2.28541583176426       -8.16983523442638
C            2.58405121624734       -2.20043637206416       -5.83696458734906
C            0.81273994768690       -0.56411287059575       -1.81060964259044
F            0.62115287075095       -0.34526963128840       -3.12088114130010
C            0.02805490423812        0.14845450541177       -0.93138770530483
C           -2.09913138216216        1.75223428194156        4.39983537791258
O           -1.42284463924383        0.96047261468650        5.24346997483315
C           -1.70650223959151        1.01347496392104        6.62280649021553
C           -3.08368763710559        2.64430888345610        4.80063049884639
H           -6.11376249344433        5.65790357568397        4.18615274718405
H           -6.00295445146775        4.52720909099724        2.81547768952451
H           -4.77645885368562        5.81107182206213        3.02080889579722
H           -3.95232174544740        3.95494099316056        1.79038457760735
H           -2.23200801410703        2.39398350922790        1.07130196309274
H            1.25600516178041       -1.07593831541701        1.98112314363040
H            2.64187210916608       -2.33339905724736        0.37760186832966
H            4.26741000415598       -4.08351993159554       -3.55271826734657
H            1.85440067904719       -1.40929564368731       -5.89270749062042
H           -0.70432285053969        0.84438312821914       -1.30764347282223
H           -1.03580153550483        0.28970163536975        7.08214000275277
H           -2.74326016913165        0.73174562854695        6.83038863055928
H           -1.50720339808086        2.00688445858814        7.03576628458710
H           -3.35967704807673        2.75194677253073        5.83619754465512
