70
 energy: -155.716602445850 gnorm: 0.000111520124 xtb: 6.7.1 (edcfbbe)
C           -9.88996735015775       -0.97741961303960        8.49464885736880
O           -8.80475235494907       -1.85321986987655        8.29467203662778
C           -7.88774703620807       -1.56538765771408        7.34444176027695
C           -6.83738524661275       -2.48113816143961        7.21366005674659
C           -5.85850575417700       -2.26689994293157        6.27727511694774
C           -5.88116440052540       -1.14963712572511        5.43777063800276
C           -4.82920703382629       -0.92944402983262        4.43893552761600
O           -4.79182168785944       -0.05925562101771        3.61069233703073
O           -3.82667183355194       -1.85643366208710        4.58093716798495
C           -2.74576818638656       -1.86961292190408        3.73857386705802
C           -2.83110362418477       -1.60290898570855        2.37482702085482
C           -1.69195111032867       -1.64991724975645        1.59739597157644
C           -0.46089186052466       -1.97499244969575        2.16478904259164
C            0.78875948141236       -1.98167372329927        1.38719447078674
O            1.87931561931604       -2.23327627069427        1.82738035417334
O            0.55819729708201       -1.66784485639868        0.07769813492894
C            1.55792567868271       -1.43717878193258       -0.82144061873647
C            2.82135339201421       -0.96490744877718       -0.48639425125814
C            3.72072367229254       -0.69174693587632       -1.49833500461186
F            4.92194346658499       -0.20746114385208       -1.14816202591859
C            3.42805932050450       -0.84780317615789       -2.85418190089272
C            4.39325521819526       -0.49877205723430       -3.90711765683859
C            5.73264889302370       -0.85732602312315       -3.79146668323036
C            6.63029602253938       -0.49231757656299       -4.77590707669710
F            7.90185287368510       -0.86921221221780       -4.63389876719569
C            6.24971471114478        0.24988741254843       -5.89557250581308
C            7.26063203220631        0.62234606139218       -6.96613037673337
F            8.47917266907061        0.85778762618311       -6.40231433133961
F            7.45523772050804       -0.43204718853093       -7.79076424808285
O            6.92901018064423        1.66267320571214       -7.78734089652036
C            6.63911710071650        2.89625712319696       -7.26854584105811
C            6.11069386274116        3.81119036768933       -8.17438573142647
C            5.78070645796994        5.08037569481385       -7.74655989445442
F            5.27202416578740        5.95477906781488       -8.61934439710396
C            5.96016953947005        5.46449093416557       -6.41956305559895
F            5.62678386405041        6.69352468321795       -6.00810463293872
C            6.49450536241125        4.53669291354799       -5.53594751170442
F            6.67936415002431        4.87377425134621       -4.25513912197274
C            6.84053038874806        3.25836018051703       -5.94362180418618
C            4.89538009584192        0.56155580934664       -6.00068004763603
F            4.44399407176838        1.24023637057077       -7.06496483676901
C            3.97815008297638        0.20931039987996       -5.03154583927298
C            2.14800673458352       -1.32915460738589       -3.13864375685913
F            1.79762025981815       -1.53514001123955       -4.41857801373689
C            1.22461061093116       -1.62825240843687       -2.16093512713844
C           -0.38996688299767       -2.27400779259706        3.52734149501136
C           -1.52166546700664       -2.22112697800644        4.30861458894932
C           -6.94253678192361       -0.22603957808680        5.56383967457188
O           -6.93221238958521        0.83579684240068        4.74281661838037
C           -7.95516080697930        1.79932948041873        4.82540604490541
C           -7.93209288756338       -0.44776522408259        6.52006947089816
H          -10.47469060342316       -1.41482507601400        9.30197667351749
H          -10.51389664244886       -0.89974213260492        7.59888452913478
H           -9.55148323841145        0.01937938326102        8.79387138212196
H           -6.82212303761283       -3.34270604959493        7.86016760413085
H           -5.04988341504189       -2.97242974196890        6.17664122937296
H           -3.77889960221760       -1.34545330539351        1.93180441175691
H           -1.75507789051371       -1.43066921703020        0.54353534804133
H            3.11679205453058       -0.80989904083553        0.53792226974469
H            6.09431982805964       -1.42630098052250       -2.95053054498860
H            5.95564229607200        3.52276545034832       -9.20004932071573
H            7.27160034413648        2.59373645900804       -5.21261235483868
H            2.94934059368828        0.49920802248031       -5.16862559716585
H            0.24973685188271       -1.99921993267332       -2.43114720166706
H            0.56742153862250       -2.53238904650356        3.95314017194557
H           -1.48270183150154       -2.43867541811684        5.36439923600225
H           -7.71175303099181        2.54113091535948        4.06690353319480
H           -7.97764945875643        2.28201337425293        5.80778485010481
H           -8.93646651132321        1.36690673496205        4.60494189239699
H           -8.73939054630323        0.25811246198686        6.61760759114062
