37
 energy: -51.389560126918 gnorm: 0.000201586984 xtb: 6.7.1 (edcfbbe)
H           -2.20923207465811       -0.01501057962796        1.79771592742048
C           -1.16912921334223       -0.09060791681032        1.50399000836066
N           -0.50591471489240        1.04454949637058        1.48833749277102
C            0.78338429686838        1.04047807067891        1.14813864507611
C            1.45618227793838        2.34585274827022        1.16019763245411
C            0.68637095844710        3.50435854109101        1.03487948819516
H           -0.38275409487389        3.40062907086638        0.93782939347706
C            1.27660641345780        4.74905831508553        1.03665584345717
H            0.67930964138705        5.64333001520776        0.93577266985941
C            2.66253862060328        4.85764431878248        1.17035368738511
C            3.27768003151248        6.12940344487800        1.16851158796007
N            3.77729623343207        7.16168382441081        1.16496026777289
C            3.43975364080492        3.70722839458776        1.31155913302250
H            4.50996535171011        3.79816474544580        1.42764414826611
C            2.83841908847250        2.46591763619652        1.30666323691744
H            3.44989742859135        1.58630159415757        1.43917853646213
C            1.43429695634576       -0.14065644588922        0.78931176239262
H            2.46774776380721       -0.13148789284883        0.47968406903509
C            0.72542442149891       -1.32797210590280        0.80776412986392
H            1.21006817937418       -2.25455278310010        0.53228867164295
C           -0.61370155930541       -1.32684132031085        1.17972915737186
C           -1.44258648958229       -2.57386467591449        1.18942293865481
H           -0.79273796943678       -3.45004996250732        1.24113280839219
H           -2.08788308724290       -2.57198401049201        2.07098990248579
C           -2.32135077109481       -2.66947960497374       -0.06591155447566
H           -2.98258544074940       -3.53325624113176        0.03319876684257
H           -2.94638220662210       -1.77632524158638       -0.13498766042086
C           -1.49755947990295       -2.81001391042531       -1.34287954972109
H           -0.83998644844360       -1.94371516370500       -1.44851198960974
H           -0.86689553789116       -3.69978488504078       -1.27044061504720
C           -2.38043475495429       -2.92142558323766       -2.58335463694400
H           -3.04270268150685       -3.78415224088783       -2.47960506235189
H           -3.00761274078987       -2.03029712818701       -2.65960496848331
C           -1.55270061895399       -3.06825790378773       -3.85408707656913
H           -0.89757227448354       -2.20934581604396       -3.98341747805724
H           -0.93677583988138       -3.96388350823108       -3.80723815427518
H           -2.19843330563907       -3.14162529539053       -4.72589115958412
