41
 energy: -59.395410508950 gnorm: 0.000167453256 xtb: 6.7.1 (edcfbbe)
H           -2.36696293767350       -0.00366642028253        9.35417816669929
O           -2.17153054735811       -0.31373512043663        8.46437613095411
C           -1.90487697852173        0.79506475660097        7.63301045111306
H           -2.77491783960125        1.46804227952560        7.59875139762366
H           -1.04626213528575        1.36614579626735        8.01729273273252
C           -1.59569956113713        0.28035823746858        6.23122218079910
H           -0.74216675373281       -0.39645799080570        6.29448212696438
H           -2.45146697469494       -0.29912050534281        5.88134018183709
C           -1.29545596157619        1.41530479802989        5.25793162545126
H           -2.15771842657778        2.08529249955112        5.20583414939338
H           -0.44754149527766        1.99621069827121        5.63040390141189
C           -0.97545564868953        0.88886315161460        3.86165548113913
H           -0.11214293453545        0.22173301224788        3.91088303350844
H           -1.82107524991231        0.30900976134446        3.48564567928656
C           -0.67343453279546        2.03111347704286        2.88557281962171
H            0.17079674373970        2.62163025698805        3.25523013873601
H           -1.54119165101682        2.69425386091623        2.81150605103065
C           -0.35417407712823        1.52812795974401        1.56749884794110
C           -0.09047027597738        1.07788420989191        0.48311058366869
C            0.22095203816454        0.56491373216730       -0.79707533454906
C           -0.08464053178007       -0.75792987856614       -1.12070080098914
H           -0.55684939641904       -1.38837831762551       -0.38141225295298
C            0.21552710102925       -1.25425236233585       -2.37154197773152
H           -0.00990763311628       -2.28483280268890       -2.60510333491770
C            0.83645413846302       -0.45185150057168       -3.32868553793545
C            1.15865412995351       -0.98448761601443       -4.65769767282291
C            0.26001544499079       -1.81654256619196       -5.32718301320813
H           -0.68825498556115       -2.05413990797561       -4.86812592844211
C            0.55550440636530       -2.31676599652807       -6.57745275399728
H           -0.14623557840729       -2.95462262614967       -7.09482566518413
C            1.77042176669881       -1.99446075580269       -7.18448545138533
C            2.07953843945643       -2.50519328909516       -8.46453949795663
N            2.32958686469363       -2.91916895536968       -9.50442072478577
C            2.67860462493453       -1.16578473340096       -6.52359125809291
H            3.61977694441372       -0.92309505389832       -6.99502198474943
C            2.36926488734076       -0.66759328954466       -5.27587056744254
H            3.08170017817092       -0.04069815184513       -4.76025007714719
C            1.14487149708160        0.86761657775274       -2.99767931643438
H            1.60659779139268        1.50810383520769       -3.73528512496521
C            0.83834353045716        1.37371291857113       -1.75241082381135
H            1.07185157942952        2.39940602128623       -1.50655658041941
