66
 energy: -110.140885183923 gnorm: 0.000145534542 xtb: 6.7.1 (edcfbbe)
C           -2.35873827880160       -1.43300795879769       -0.51459549594664
C           -2.15237790133521       -1.34715439391384        0.99305477978160
C           -2.95272955546483       -0.20571715141635        1.62644621030565
C           -2.30698935898396        1.16976248760821        1.43923207102697
C           -1.18240851420828        1.41498220680888        2.44379412241169
C           -0.48990586027166        2.76819297305661        2.27455867864987
C            0.37936790109908        2.85331629279405        1.01601499093589
O            1.42873653801347        1.90190295632913        1.08253593366996
C            1.37887052966040        0.74424043519261        0.39327476780905
C            0.75936713385716        0.59289543999112       -0.84234261674832
C            0.83221718264174       -0.60627762667519       -1.54115198853148
O            0.10832435071821       -0.63972810878660       -2.71024018030885
C            0.44906672157387       -1.42041448711567       -3.76768849851238
O            1.46529060314476       -2.06388759298943       -3.83231216954396
C           -0.57003212524242       -1.35399045457173       -4.82954063897090
C           -0.30457084183435       -1.99157241533142       -6.03925945691260
C           -1.22214644385724       -1.97285456873684       -7.06935297878554
C           -2.43811577075644       -1.31069348487323       -6.90213623353101
O           -3.41153806784922       -1.22716717428387       -7.83650934783994
C           -3.21452264052170       -1.84662962999592       -9.08707546893193
C           -2.70814303492425       -0.67311190456847       -5.68507650244073
C           -1.78915858461568       -0.69280538940746       -4.66375896789997
C            1.54788431812371       -1.68392764065782       -1.03344960601036
C            2.18443053257709       -1.53339963897324        0.17970049557009
C            2.09582230424587       -0.35362067143024        0.91425742800904
C            2.77285810975719       -0.33037081738614        2.22622066716838
O            3.70791343536761       -1.02802525054209        2.52089613178483
O            2.15459528837236        0.50805413594352        3.09575438559419
C            2.63707246073885        0.77558576502183        4.34580579707307
C            3.99166097497504        0.78465132616883        4.67174746279777
C            4.37895238891571        1.12162009667168        5.95276621270601
C            3.41930847207256        1.45320862243855        6.90170118733809
N            3.82848784495666        1.80589835508489        8.23466132107987
O            5.01529419557354        1.79102224391263        8.48402866888157
O            2.96089252176050        2.09954045769484        9.03082894248658
C            2.06538364735607        1.45304087717458        6.57952736088147
C            1.67751306255681        1.11367985472502        5.30349572604675
H           -1.76538955290471       -2.24189055442873       -0.93457226673362
H           -2.06192425447541       -0.50862869173450       -1.00270911751096
H           -3.40557567356591       -1.62100926581503       -0.74487821786057
H           -1.08892408918875       -1.22089036239942        1.20691563653072
H           -2.46686660174046       -2.29181447287402        1.44173662341626
H           -3.06963767705018       -0.39367639874512        2.69611193736887
H           -3.95209234502186       -0.19915585740334        1.18575307886721
H           -3.06578811993234        1.94529807574648        1.57007294970493
H           -1.92768257459664        1.24798991027223        0.42022616147027
H           -0.43506359447696        0.62345330589467        2.36902875981753
H           -1.60723974313449        1.37069288216980        3.44994682024395
H            0.15554481338560        2.94646978242244        3.13640980414686
H           -1.23328173121512        3.56659699471504        2.23159650571225
H            0.86274743028542        3.83430197096444        0.97024336835303
H           -0.23257306265363        2.72782306114011        0.12187200649030
H            0.22360986383898        1.40478267065930       -1.30855631052527
H            0.63920374683416       -2.50224811475404       -6.15643976412631
H           -0.98571366161725       -2.47394464061990       -7.99437274893021
H           -4.11962491328814       -1.64787697828989       -9.65842517349627
H           -3.08281509975473       -2.92775662423387       -8.98245193098714
H           -2.35403422724495       -1.42230405926914       -9.61309835075466
H           -3.65573755279934       -0.17010121370502       -5.57502502217875
H           -2.00991091669927       -0.20332266268290       -3.72883278845376
H            1.61481237764144       -2.60919272994914       -1.57912964920492
H            2.75441138644720       -2.34736134006850        0.60064477575609
H            4.73085372550014        0.52510039782811        3.93232481781557
H            5.42150402058968        1.13530896761080        6.23143776473287
H            1.34242447848804        1.71536086957942        7.33656817928707
H            0.63686000891276        1.10075691175724        5.02177895994893
