72
 energy: -116.469834849288 gnorm: 0.000702360388 xtb: 6.7.1 (edcfbbe)
C           -1.94845856936288       -9.08357936689134       -3.10219085939711
C           -2.78313833559210       -8.08919741905936       -2.30474067833373
C           -2.36712141495335       -6.64753417549293       -2.58544302868878
C           -3.19355605005373       -5.64273864457811       -1.78599985324818
C           -2.73946751029885       -4.20533893674597       -2.03063437437500
C           -3.55716279594446       -3.19999324691420       -1.22148008614300
C           -3.13647666838639       -1.74914557967801       -1.46857146498584
C           -1.77990833048688       -1.37786596773469       -0.86842628504458
C           -1.84539634138434       -1.17410320483421        0.64710712087938
O           -0.57699200657805       -0.87321171847579        1.19549784501190
C            0.34769851493514       -1.83505379963650        1.38515075421600
C            0.09416768404182       -3.19673447071944        1.22076077247003
C            1.07916744890170       -4.14648749496296        1.46278150726187
O            0.90354318483756       -5.48121738432939        1.33251134524332
C           -0.35041778995051       -5.97702713148466        0.92522837460533
C            2.35532026567192       -3.73645303697921        1.86497233011459
C            2.61658219066579       -2.39945711757147        2.01003092108015
C            1.63810708917181       -1.42645726079423        1.78093791841916
C            2.06459067295564       -0.02703336757209        1.92825804550419
O            3.21397764876180        0.31035275782812        2.08234398615556
O            1.02894291610827        0.84553181662076        1.89430788234012
C            1.18933374626464        2.20155976163308        1.82046675669132
C            2.27442213343715        2.82983086053184        1.21492530951080
C            2.29865863736688        4.20649500702331        1.11622679252319
C            1.24660152186283        4.97189149392797        1.61571983412474
C            1.21161989199361        6.44128991481471        1.50367761351067
O            0.32230080808704        7.13988973809781        1.91663440495602
O            2.32531714881627        6.91469734194295        0.88127931865065
C            2.51442311415134        8.23108229163523        0.55435367783486
C            1.48607465173369        9.14333408029325        0.32795079501752
C            1.79604181649143       10.43223085481970       -0.05732556941243
C            3.12372033247281       10.80717712625447       -0.22091366937171
N            3.43805479022151       12.15023826147071       -0.63078744794037
O            2.51403183143257       12.91101584851818       -0.82618768988477
O            4.60898766052601       12.44008133935642       -0.76007359370996
C            4.15512096090083        9.89913916649502        0.00038712978690
C            3.84817693212840        8.61457266173914        0.38694933816508
C            0.16404547162627        4.33419183366841        2.22643069391088
C            0.13384431710027        2.96258666535661        2.32668902219431
H           -2.25956620923950      -10.10331154892979       -2.88860330923278
H           -0.89463051469056       -8.98618302421669       -2.85017536545828
H           -2.06176912040985       -8.90677315811501       -4.16948926763317
H           -2.67216051685523       -8.29496269412652       -1.23721083595716
H           -3.83818770701739       -8.21530611422354       -2.55741986340339
H           -2.48202319868054       -6.44025685361614       -3.65178489651160
H           -1.30842796691368       -6.52723170565360       -2.34102722280428
H           -3.11330134016509       -5.87540144888822       -0.72046848269233
H           -4.24560910530569       -5.74041007106171       -2.06277225671223
H           -2.83809607824679       -3.97305872882342       -3.09328087750918
H           -1.68047889303106       -4.11862398040849       -1.77715010731260
H           -3.48030165503101       -3.43705559056319       -0.15821423967249
H           -4.60836245987675       -3.30712080386055       -1.49782063681072
H           -3.89516814511315       -1.08040466754907       -1.05567918814654
H           -3.10070212710133       -1.57987701448903       -2.54652033179280
H           -1.42773500532215       -0.44540172140206       -1.31367629997285
H           -1.04021079798862       -2.14538524468907       -1.10044045205777
H           -2.29814334281317       -2.03462413556294        1.15184483183349
H           -2.45216259153179       -0.29282676458723        0.87373363257757
H           -0.88359858912619       -3.51939491046666        0.90628423295501
H           -0.24096183084780       -7.05962161577064        0.88914184422420
H           -0.62328113335921       -5.60998520922605       -0.06817350614879
H           -1.13698758717681       -5.71857727230001        1.64131049230414
H            3.10690906904070       -4.48628067186464        2.04664633245916
H            3.59566445601849       -2.05744131430911        2.30804311410553
H            3.09250877104365        2.24495649372095        0.82747630004057
H            3.13649135219627        4.69238730615569        0.64164185543903
H            0.45772307943466        8.85066764927458        0.45835653304953
H            1.01754062122617       11.15732753398236       -0.23906708876709
H            5.17746090537080       10.21686763434630       -0.13477889178461
H            4.62341699243256        7.88637468717057        0.56396953302490
H           -0.64384220681718        4.93815084064984        2.61068996279620
H           -0.69679469335758        2.45020462182153        2.78578956618234
