48
 energy: -96.473754350353 gnorm: 0.000416081456 xtb: 6.7.1 (edcfbbe)
C           -7.96023448750690       -3.20422014027314        1.05934511986628
C           -8.32791520344871       -1.88030601488775        1.71723455716091
C           -7.95415518740534       -0.69055430782687        0.84003218131575
O           -6.54774636650442       -0.61964811033168        0.74750365306212
C           -6.09743795850790        0.43339529258194       -0.05757192022292
C           -4.59603072110727        0.45450303109956       -0.11342363335876
C           -3.84880248946088       -0.52068170359980        0.53295590796596
C           -2.47195441628719       -0.48283249559904        0.46401824330154
F           -1.75972889073990       -1.43248839710108        1.09319462304201
C           -1.78330782612901        0.51149944942118       -0.23848182188646
C           -0.37877741725959        0.53730326230554       -0.29546805652210
C            0.82809234551346        0.54819589803082       -0.33956275172597
C            2.23450577151599        0.55937497401396       -0.37555527361472
C            2.95610383955281       -0.48417438858763        0.20748594371490
C            4.33274915602684       -0.45717097961385        0.16438242738691
F            5.00503803307141       -1.46419894891551        0.74999140032446
C            5.05748301717255        0.58054702667150       -0.42863003117120
C            6.52733617812265        0.59560043725168       -0.44598750924900
C            7.23816484880663       -0.55540529360147       -0.78153078129938
C            8.61681869197411       -0.52871718181460       -0.78853827708203
F            9.28415040142422       -1.63983826853078       -1.12170294196256
C            9.33948091952912        0.62320481141790       -0.46334902698985
C           10.75367615576508        0.63701927762305       -0.46920347305959
N           11.89826120886675        0.64782647410740       -0.46933263999976
C            8.59847290216713        1.76132409778384       -0.13098601580679
F            9.24778022949416        2.88544077488680        0.19414957825130
C            7.21963961123640        1.76092807106246       -0.12116399335764
C            4.29524792550708        1.60496845635130       -0.99712937928750
F            4.93018200082584        2.62152126952372       -1.60767881748604
C            2.91745129024201        1.61145848842203       -0.98858836148378
C           -2.56963786913088        1.47768372586131       -0.87611956248809
F           -1.95561697251769        2.45592339404951       -1.56378414733771
C           -3.94641051017835        1.46019245422360       -0.82297892660420
H           -8.19117810242783       -4.03426636110322        1.72198513158191
H           -6.89779166978851       -3.22309049726311        0.83336944260743
H           -8.51405136988284       -3.33752231061658        0.13252042011120
H           -7.80072947114664       -1.78341147604104        2.66719019130142
H           -9.40080516251459       -1.84289930669617        1.91287569592149
H           -8.34545573782075        0.24280809213650        1.27594651205766
H           -8.39072776020994       -0.80515996091977       -0.16490421573009
H           -6.46130644133833        1.39977357019433        0.33439876542330
H           -6.49624088274802        0.33032138686010       -1.08287872809910
H           -4.34434499120787       -1.29976975426793        1.08731408559335
H            2.44872623039540       -1.30414260337234        0.69004484059950
H            6.73333134019206       -1.47066442784301       -1.04546669524865
H            6.70024785560604        2.66609601510356        0.14924769824174
H            2.38047307964836        2.42385816155925       -1.45155607007802
H           -4.50299512738432        2.23037503626448       -1.33357336769327
