48
 energy: -70.233182199076 gnorm: 0.000410628689 xtb: 6.7.1 (edcfbbe)
H           -2.63858732593751       -8.04179444012885        1.60110421014592
C           -2.72148064392680       -7.35408302742006        0.77254325275878
C           -2.09385209888207       -6.12659830303610        0.81630528209463
H           -1.51033658591267       -5.85843571446006        1.68356246629202
C           -2.19396949230647       -5.23890981671197       -0.25456317680893
C           -1.51120443610954       -3.93833401018918       -0.22653422627918
C           -0.81831619672591       -3.47021990933128       -1.34262108510811
H           -0.77454963548194       -4.09118771713579       -2.22506339652101
C           -0.16661963025766       -2.25483158885136       -1.32888372837634
H            0.38277093881637       -1.93538353939926       -2.20135797362874
C           -0.18256201362182       -1.44516753386546       -0.19366343254710
C            0.51996439825093       -0.15611016475980       -0.17688782919841
C            0.50439245168193        0.67824330039984       -1.29248089730416
H           -0.05936535638880        0.38875081137094       -2.16731532699212
C            1.18038031073238        1.88213151139080       -1.28042774886674
H            1.15453437585918        2.51795679501848       -2.15404802751315
C            1.90058635689978        2.28615073655816       -0.16270545610035
C            2.61431556413248        3.60495660614303       -0.14719632262673
H            3.48154385457431        3.55109868683999        0.51423520915592
H            2.96627368346885        3.84804705190022       -1.15211815736878
C            1.68211452470660        4.72152162380928        0.33885293520107
H            0.80768567810416        4.76772478376686       -0.31455582165544
H            1.32912398383809        4.48134826588162        1.34448068272515
C            2.38302933771198        6.07693203166059        0.35184824944097
H            3.25451345418364        6.02726460477352        1.00928353408466
H            2.74210511637686        6.30734334403244       -0.65425957343891
C            1.46047712458354        7.19798704824261        0.82401547808448
H            0.58782132473785        7.24690895499621        0.16863009621873
H            1.10416346324384        6.97187997389412        1.83160983182242
C            2.16794342327754        8.54752602448251        0.82728485948743
H            3.02909841684183        8.52544134287479        1.49171112944064
H            2.51503230597435        8.79862331721124       -0.17275938655713
H            1.49507115000442        9.33261646782354        1.16389519885944
C            1.90951534575289        1.45715648636497        0.95236831488867
H            2.46437187273938        1.75426150146843        1.83095789738239
C            1.22849877823572        0.25568622026377        0.94951886532990
H            1.26828262626092       -0.38455627594648        1.81862830675484
C           -0.87579668723906       -1.89374463316431        0.92734921115095
H           -0.93951767046372       -1.29088070691872        1.81978841495672
C           -1.51777732248216       -3.11402218891087        0.89703635310442
F           -2.20143896017228       -3.49320586256271        2.00054749740144
C           -2.94241048492986       -5.60709003209525       -1.37329290621902
H           -3.04056127515143       -4.91704550320097       -2.19831039908659
C           -3.57679762371376       -6.82980293648943       -1.42548341625119
H           -4.16036050328186       -7.11040960895887       -2.29005503397507
C           -3.46729866783741       -7.71353811339418       -0.35049122433623
C           -4.11112429391338       -8.97023710966396       -0.40304347480759
N           -4.62964295625343       -9.99197875457444       -0.44743925520023
