40
 energy: -77.796510597676 gnorm: 0.000211213764 xtb: 6.7.1 (edcfbbe)
C            7.94811379301247       -0.08909577780306        2.53924417277049
C            7.15236184040736        0.20574550172976        1.32058259962519
C            7.60919311715520        0.62101312394466        0.10030822253954
C            6.58672288375387        0.80829694069732       -0.84083980265221
C            5.34298185969642        0.53252165730671       -0.33131215934250
C            4.07283291594334        0.63005192496522       -1.02717450732929
O            3.94737993557255        0.97385469193158       -2.17567261605978
O            3.06388398984416        0.26708497810262       -0.19327714147667
C            1.72902555601583        0.29557266492945       -0.51050870371973
C            1.17806016787092        0.92845363730850       -1.62009588502042
C           -0.19148375415398        0.91068481361104       -1.79291742450990
C           -1.02449968474529        0.27310665374431       -0.87538762514874
C           -2.48052117742582        0.31299419263583       -1.11858334015618
O           -2.99727685031218        0.84960750469361       -2.06384176394572
O           -3.15958047218549       -0.31355655752825       -0.12302720247061
C           -4.52357915434576       -0.43220455692332       -0.06350965130119
C           -5.01778563077817       -0.79086597198155        1.19465171865820
C           -6.36918589404170       -0.96357789549552        1.38565176912090
C           -7.23581060059564       -0.77735064785735        0.31272562262409
N           -8.65152577107386       -0.95005231785578        0.50781793737007
O           -9.03213154973797       -1.26396392053817        1.61601708211327
O           -9.37806022133380       -0.77232533474288       -0.44646573874474
C           -6.75171479204777       -0.42885523491831       -0.94139071360652
C           -5.39514212041348       -0.25797241461724       -1.13619583777185
C           -0.46251095530614       -0.36254162173688        0.23265540917273
C            0.90221846356872       -0.34980187257057        0.41178943276474
S            5.43216979047733        0.03609460378396        1.32749057736096
H            9.00100983412273        0.10942876684324        2.35575393521595
H            7.83227651908170       -1.13299214387509        2.82906919624522
H            7.61285063060236        0.52470683265106        3.37425322251590
H            8.65048730676623        0.78701732137641       -0.11064686612293
H            6.73468556733548        1.13193389758492       -1.85490246962708
H            1.81024868556804        1.42304649908875       -2.33828663402268
H           -0.63906941754524        1.39832196934085       -2.64537607818771
H           -4.32028119033581       -0.92606281257811        2.00575012549164
H           -6.77104594294027       -1.23716575840828        2.34901984075170
H           -7.44704695946431       -0.29553231687787       -1.75599943431233
H           -5.01975659574936        0.01692793919401       -2.10731980309539
H           -1.09707116078549       -0.86233404740082        0.94688727311061
H            1.35858703852328       -0.83020491175490        1.26306326117240
