76
 energy: -125.027876019833 gnorm: 0.000202996837 xtb: 6.7.1 (edcfbbe)
C           -1.67148223726342        0.00496942248661       -8.51807987188160
C           -1.33754853861685        1.22622399452125       -7.66938246725260
C            0.05281031111659        1.16017427620792       -7.03509889038493
C            0.26434631664444       -0.00740845626765       -6.06935660239800
C           -0.67245503657138        0.03796061594157       -4.86264354696529
C           -0.27337618777174       -0.93655081600928       -3.75624869409714
C           -0.40204952278635       -2.39889363134400       -4.17316769331468
O           -0.14378742761661       -3.17787834148110       -3.02101410184362
C           -0.15286887572494       -4.52190660312778       -3.08848986562943
C           -0.44023633576150       -5.22451517685528       -4.25797459369072
C           -0.42251759365283       -6.61409093972363       -4.28311335046116
O           -0.69619918799882       -7.36370634059945       -5.37564656925884
C           -1.02923699249318       -6.72535608993949       -6.58574121334902
C           -0.10263575723392       -7.32414724534486       -3.12098035243812
C            0.18167990209001       -6.63785389870220       -1.96902479988099
C            0.15765949578480       -5.24102976740136       -1.91674390372743
C            0.47772305941993       -4.63019889335880       -0.61622861857323
O            0.88788228092733       -5.25514585639121        0.33212361313601
O            0.22056189437984       -3.30250479938016       -0.58652053143381
C            0.50259649043891       -2.50381467670816        0.49076473053662
C            1.54141780302414       -2.72767832692613        1.38917220113617
C            1.75847712769707       -1.82349301160440        2.40933655285030
C            0.95557658690672       -0.69315111938696        2.54788887107977
C            1.23819194470409        0.23290118062891        3.66391683964289
O            2.16974650750910        0.12858594634696        4.42044772755529
O            0.30035019973348        1.20601269023223        3.74750644181740
C            0.37700599358642        2.20261342594673        4.70011013079769
C            1.56678507735937        2.81107468047437        5.07728735416976
C            1.54284110266518        3.82803459635341        6.01205912513771
C            0.34401191244356        4.26827492803817        6.56896260257391
C            0.33039293016317        5.35189310115407        7.55847732772033
C            1.31198302628735        5.41813675955748        8.55046751772881
C            1.30327808352953        6.43260315894117        9.48368055195186
C            0.30605909737537        7.40045321220753        9.42894333805695
N            0.29370404332655        8.46280037779792       10.39700073962279
O            1.17052266340554        8.47296377004714       11.23621113473874
O           -0.59304466759100        9.28819414583183       10.31849519289154
C           -0.67952736585374        7.35400164401737        8.44889048246268
C           -0.66394206926244        6.33271428057079        7.52335949159199
C           -0.84363991160406        3.65883720891656        6.16440679538163
C           -0.82924602039099        2.63154297268063        5.24498721856408
C           -0.07585679192565       -0.46896041759412        1.63604656870088
C           -0.29743732409106       -1.36713032331882        0.61626077572537
H           -2.61563426141206        0.15378566255977       -9.03707768613445
H           -1.76236952473390       -0.88723498311548       -7.90361226634606
H           -0.89563635103759       -0.16523868420923       -9.26154632477491
H           -2.09306585939953        1.34782221544670       -6.89162939799936
H           -1.37750652007998        2.11567456857665       -8.30259665179499
H            0.23474838057981        2.09531985428284       -6.49983529139488
H            0.79668903185737        1.08794393568619       -7.83238919851018
H            1.29668844302824        0.03014606776148       -5.71306125357650
H            0.13679020120250       -0.94784807984269       -6.60620044529487
H           -1.69437612812736       -0.18051133080587       -5.17752897942283
H           -0.66075931040195        1.04836654348616       -4.44831990122699
H           -0.91314519096518       -0.78357090963711       -2.88567893083589
H            0.75571249798737       -0.75180546482241       -3.44450454727251
H            0.32126509134226       -2.64002535845453       -4.96242623390472
H           -1.41755142971418       -2.59432139528684       -4.54618099270137
H           -0.68087356592899       -4.67780134583439       -5.15407942483677
H           -1.20509751807435       -7.52678141094415       -7.30124385149572
H           -0.21077221920703       -6.09416258603996       -6.94596854933646
H           -1.93906192301635       -6.12500912604443       -6.48653092365290
H           -0.08858034750846       -8.40045859663020       -3.15919858989108
H            0.43119174005960       -7.16378722208361       -1.06040611380961
H            2.16386448140603       -3.60194377713542        1.29548580697195
H            2.55696319480266       -1.97944521300096        3.11864558633106
H            2.50214133471592        2.48865788728045        4.65008592588500
H            2.46912600376651        4.30722450660188        6.29081804372474
H            2.07203257838973        4.65369688473524        8.59807980576826
H            2.05199695995425        6.49181192290800       10.25878578462538
H           -1.43828399151642        8.12133430431959        8.42901129382903
H           -1.41544627457477        6.30125621756215        6.74953536878710
H           -1.78161766709227        3.97106553584441        6.59814745870371
H           -1.74304098770186        2.14699565848710        4.93826055967751
H           -0.69674388174670        0.40768944680570        1.73314380838111
H           -1.08812299312922       -1.21440738585598       -0.10131154745166
