63
 energy: -106.974856297087 gnorm: 0.000252681624 xtb: 6.7.1 (edcfbbe)
C           -1.80933772933039       -0.95825159265162        9.10492345845070
C           -2.19908613984972       -1.76725158221988        7.87406872963606
C           -1.34768417140990       -1.39967335835653        6.66108394737342
C           -1.73606732358885       -2.20334306867710        5.42224920254390
C           -0.88729335622075       -1.82598684308455        4.21131074406622
C           -1.29706350954493       -2.62053688040779        2.96931355784284
O           -0.54316974916855       -2.26977406376371        1.82638997538766
C            0.71250770484147       -2.70814993121582        1.65719136703505
C            1.34917783352868       -3.60373480146865        2.51665368190731
C            2.64876422210300       -4.02733708637383        2.27337757144459
O            3.33053212778647       -4.89538662748063        3.05543463573961
C            2.70451766632057       -5.43391442603733        4.19643251521479
C            3.33741558522899       -3.54378415229239        1.15522898042684
C            2.71945474224254       -2.66322798304670        0.30508311081478
C            1.40902109910994       -2.22810232849037        0.52452767718155
C            0.75550584158536       -1.29416148917436       -0.40225651020539
O           -0.38566207644316       -0.91760617893630       -0.35486572006481
O            1.63143728576138       -0.90606951863449       -1.38123178894232
C            1.32243399860701       -0.01286335768360       -2.37184723402425
C            0.32738161284974        0.95783245536783       -2.29361418040305
C            0.13656753580762        1.82718408912291       -3.34953927524217
C            0.93566297693997        1.75041435819195       -4.48795475572377
C            0.76713346102901        2.65141024852331       -5.64280257827444
O            1.44897446079140        2.62604071199240       -6.63483475719869
O           -0.24749752992666        3.53296513611085       -5.43568572211571
C           -0.66312484545367        4.45681778346998       -6.35718913461584
C           -0.46529486847609        4.35472987087340       -7.73247848769363
C           -0.97059149545579        5.33393066814075       -8.56447156804274
C           -1.67399856472065        6.40533028221849       -8.02896853455671
N           -2.19891326405936        7.42081429533084       -8.90297160230703
O           -1.99886802925197        7.29971876964323      -10.09295349697157
O           -2.81254936325247        8.33686025511654       -8.39679716799805
C           -1.88210885340207        6.50835801532105       -6.65672402446799
C           -1.37691304225827        5.53508980104921       -5.82570362279110
C            1.94151173875312        0.78346153447588       -4.55320185514330
C            2.13242395889690       -0.08940148139905       -3.50794171333560
H           -2.42756939104027       -1.23395440893638        9.95577990354656
H           -1.93759592226258        0.10555122628930        8.91789183574382
H           -0.76813581623695       -1.13604847683724        9.36521360321242
H           -3.25141049490036       -1.58999331433766        7.64165869177033
H           -2.08302773758633       -2.83234609303682        8.08790063273865
H           -0.29468054254355       -1.57653502235490        6.89336389548241
H           -1.46389881473114       -0.33462545114474        6.44953140213610
H           -2.78928001077691       -2.02779440331524        5.19291605785275
H           -1.61912434512038       -3.26986275898000        5.63230681628069
H            0.16838832975546       -2.00016261679432        4.43137264165298
H           -1.00408717052203       -0.76330502096334        3.99200595445649
H           -2.32559377778911       -2.36976449027438        2.69658185302128
H           -1.24855479083466       -3.70033850480096        3.15928365969489
H            0.82203137805828       -3.97695984624979        3.37789877708109
H            3.43920955055617       -6.09844597462057        4.64790065542737
H            1.81258488132015       -6.01014988559082        3.93132807620090
H            2.43665225152147       -4.65249138158338        4.91457700140662
H            4.34657490110979       -3.88037477112276        0.98561417427217
H            3.24908273979126       -2.29430563338260       -0.55787176365894
H           -0.29878930495821        1.02425181406697       -1.41975566430421
H           -0.63883794324932        2.57442212232003       -3.28890320040112
H            0.08355800089273        3.52541553690976       -8.14571701168833
H           -0.82888491795026        5.27813572031798       -9.63293488364010
H           -2.43424337172108        7.34973959229214       -6.26724023403739
H           -1.52151497476079        5.58516669838807       -4.75836222758778
H            2.55837371543933        0.73518298585236       -5.43740223473159
H            2.90355363816026       -0.84281916566459       -3.54420383687549
