48
 energy: -99.592105573312 gnorm: 0.000281065918 xtb: 6.7.1 (edcfbbe)
C           -4.45542587497144        7.55384698616976       -1.81953143775942
O           -3.95192764958078        6.39269507595528       -2.43900614383489
C           -3.21129804368727        5.52396520527794       -1.71769624591201
C           -2.75290011442785        4.39529493643629       -2.40798944851372
C           -1.99671794385401        3.45665870238393       -1.75491645193793
C           -1.66263239576979        3.59626707596431       -0.40407399223364
C           -0.85247535710467        2.58886861740209        0.28595315148508
O           -0.42845163279904        2.64375126084440        1.40826473321930
O           -0.64449870160237        1.50070986020499       -0.53276049308201
C            0.11672635777714        0.43210759438863       -0.16201098071062
C            1.20120941741227        0.48881880750522        0.71203329289428
C            1.91588250301080       -0.65903210948107        0.97657892951599
C            1.59550924440192       -1.88582477229568        0.38949765528740
C            2.42507222997602       -3.05450862692115        0.75397100192955
O            3.37580159512828       -2.99554588396106        1.48913673440187
O            1.97660031505906       -4.18141642510695        0.15519932552615
C            2.50819723224406       -5.42751251316940        0.30067151326766
C            1.92603704855454       -6.40095964686171       -0.51988957929290
C            2.36290549679181       -7.70133931750660       -0.45931217138067
C            3.38009389044074       -8.07078159479361        0.42137190689230
N            3.79165322812179       -9.45497425305483        0.45651378263228
O            3.43250239293531      -10.15149040341891       -0.46947187340071
O            4.44933185276064       -9.83550910510085        1.39505865200845
C            3.95355925169868       -7.09191929717408        1.23216546435386
F            4.94670508751136       -7.38389328030902        2.06883967938929
C            3.52955227473739       -5.77395516161969        1.17666017226600
C            0.51459935890964       -1.91213172657921       -0.49525217462591
F            0.14759804497333       -3.04524726540640       -1.11369502764319
C           -0.21747846669698       -0.77718824663440       -0.77048087717862
C           -2.11921452654976        4.73710643856884        0.29416713887376
O           -1.78119010776123        4.83817922460769        1.58830613472664
C           -2.21238350798545        5.94469051154706        2.34496257638242
C           -2.89129664012671        5.68524436740618       -0.37511324085646
H           -5.01037290439312        8.08129807123839       -2.59337549283423
H           -3.64830261702726        8.19582886665622       -1.45361718011523
H           -5.13169864605281        7.30770500059078       -0.99514955803068
H           -3.00893367210035        4.28996556621217       -3.44905082748439
H           -1.64377205127426        2.58929001006942       -2.28829629695580
H            1.47051573795300        1.41723108291597        1.18634640456899
H            2.75514971498291       -0.63446654737375        1.65472964532262
H            1.13555740590488       -6.10221978200485       -1.18871645248115
H            1.92993998461207       -8.46648132669036       -1.08557118034500
H            4.00461141439088       -5.04465269136338        1.81250128290681
H           -1.04900646958402       -0.82451755718715       -1.45516775813869
H           -1.80960286706934        5.78327129604090        3.34318907665309
H           -3.30451578234239        5.99536351024005        2.40029039774923
H           -1.81945926931078        6.88498896562124        1.94528344651848
H           -3.24173583820249        6.55244049979689        0.15846278597336
