48
 energy: -99.597236128510 gnorm: 0.000176597268 xtb: 6.7.1 (edcfbbe)
C           -5.72011035589354        5.25032878225709       -5.04185357215290
O           -5.23871652860685        5.67379369170219       -3.78329306053243
C           -4.27691216233991        4.95873948029868       -3.17798581642324
C           -3.85403959734939        5.42739182301972       -1.92992482088332
C           -2.87003129115884        4.75561850227372       -1.24231206219524
F           -2.51136897869964        5.21872329615800       -0.04260575200560
C           -2.26799105906359        3.59122763867515       -1.73251799139922
C           -1.19765807020531        2.90148916856433       -0.95898462426685
O           -0.37600186479644        3.45738822935093       -0.28644194411031
O           -1.28797764387113        1.57193397855684       -1.14802337067212
C           -0.43005429370051        0.67215640963714       -0.55030640938909
C            0.10343773195829        0.83766506668315        0.72099436554646
C            0.89664503194716       -0.16715523785354        1.23502600907082
C            1.17119291273302       -1.32867369807422        0.51697189204018
C            2.02479344611212       -2.38586712699471        1.08958423006969
O            2.52322712769711       -3.30310053070200        0.49773077573938
O            2.16052261611702       -2.19922576574660        2.43821058837312
C            2.92441694831572       -3.00897540652756        3.23423235605485
C            2.52698312545541       -3.06959090640113        4.57302497033429
C            3.24390300816710       -3.82219276219352        5.47457822681916
C            4.36606292829164       -4.51964570412382        5.03705102468358
N            5.11594195200939       -5.31264490341991        5.97407626767283
O            4.72816160218655       -5.34306044359493        7.12343417244510
O            6.09105480330840       -5.90370678767758        5.56056717442519
C            4.77195846156600       -4.45679487586828        3.70983740443166
C            4.05600606871530       -3.69916401150890        2.80466584514279
C            0.62801680162029       -1.48708394204414       -0.77970327197392
O            0.90773330977212       -2.62127215502199       -1.43436765402100
C            0.38143520295546       -2.82321974485890       -2.72678291497263
C           -0.17538750117290       -0.47287676867848       -1.29251761595121
C           -2.71437894829775        3.15244507346915       -2.97672676568332
F           -2.16549157458207        2.06332147568075       -3.53527869966438
C           -3.69051156620515        3.80779435757280       -3.70227160825674
H           -6.48199203433203        5.97526919988048       -5.32150703128782
H           -6.17029436902446        4.25554242340017       -4.98166502702552
H           -4.92585704636948        5.25077353665512       -5.79340575030398
H           -4.30201867691441        6.31396941127678       -1.51334204074563
H           -0.09115968860924        1.73005498689792        1.29094679597990
H            1.32115105658863       -0.05324490992502        2.21937980144701
H            1.65241147787413       -2.51786146393428        4.87881213020444
H            2.95290173584104       -3.88571759299268        6.51176741949827
H            5.65010519677419       -5.00329718710911        3.40161682530651
H            4.36606966423942       -3.65166727556819        1.77443645390526
H            0.75007544102424       -3.79898967633292       -3.03748829947441
H            0.73558663490089       -2.06111178748155       -3.42708677877443
H           -0.71264868963351       -2.83311774122293       -2.71772467901529
H           -0.62093981624214       -0.54067080859079       -2.27117967950196
H           -3.96827252911699        3.40431268243375       -4.66166748851203
