45
 energy: -95.309583945912 gnorm: 0.000355712584 xtb: 6.7.1 (edcfbbe)
C           -7.11230643147414       -1.08135752475690       -1.09690733687443
C           -7.15478466472892       -1.00462796011707        0.42318948841771
C           -6.69427296381994        0.36347790998560        0.95082142509232
C           -5.24636856972663        0.60059593571659        0.65334480727600
C           -4.85468796512680        1.37836792002509       -0.42930451911496
C           -3.51300123908404        1.56342419266248       -0.70079929969217
F           -3.17668336715293        2.29897062260533       -1.76462780536282
C           -2.50638695446389        0.98048390690839        0.07224236958253
C           -1.07327442279564        1.24449230763437       -0.22530880185519
O           -0.64188071412614        2.27827821298173       -0.64940004466689
O           -0.33279576666267        0.15429232768774        0.07704190912307
C            1.03336030739594        0.12432031797931       -0.02625219225599
C            1.67572440867640       -0.76845601704298        0.82727254767465
C            3.04751890606872       -0.88670555922505        0.76995715783869
F            3.64320693925606       -1.73880218884985        1.61952429987039
C            3.83834802453620       -0.13784078375185       -0.10479700919414
C            5.30436494144411       -0.25932195351460       -0.13736862441808
C            5.90662397559802       -1.51583422890849       -0.12230315360347
C            7.28213429513371       -1.61405576186409       -0.15037461136007
F            7.84426561501815       -2.82822149104800       -0.14394024170454
C            8.10688063636242       -0.48586358627678       -0.18982111076439
C            9.51667656109458       -0.59878743064907       -0.21438404254969
N           10.65718494586170       -0.69308839419702       -0.23390814331114
C            7.47311333764883        0.76040875756329       -0.20275734698927
F            8.22273244141581        1.86789016360428       -0.23285438275408
C            6.09974358145029        0.88429859569587       -0.17932580811243
C            3.14531830387907        0.73764299684776       -0.94118145602407
F            3.83724270120560        1.46255983098837       -1.83353120884234
C            1.77022589394441        0.87901029914874       -0.92912959413830
C           -2.93017663350433        0.19817153022769        1.14844766500072
F           -2.02056681524728       -0.36563475550267        1.95685642791412
C           -4.26501963263855        0.00930111795776        1.44198996446947
H           -7.46815996395053       -2.05150481782981       -1.43448282821202
H           -6.09755578582231       -0.94297262256329       -1.46284249587565
H           -7.74599656197192       -0.31432110601660       -1.53637283674560
H           -6.52011148482580       -1.78536229768982        0.84632450071046
H           -8.17605399977224       -1.18004432778478        0.76575009689527
H           -6.85089468839263        0.39342788297467        2.03048418568714
H           -7.30062090950832        1.14492903307312        0.49166976780079
H           -5.58484591188952        1.85062372857828       -1.06725841519073
H            1.10273853241892       -1.35276464884199        1.52834570363217
H            5.31996936420909       -2.41981758005007       -0.09693907770130
H            5.66498920524238        1.87069916871125       -0.18495851948480
H            1.30492313831684        1.57543789329836       -1.60678486179414
H           -4.53084060949292       -0.59571961637413        2.29465345160602
