35
 energy: -52.176291723238 gnorm: 0.000232146533 xtb: 6.7.1 (edcfbbe)
H           -0.19097766473637       -5.78290835731524       -0.04893259336891
C           -0.70120425883137       -4.85354107121740        0.15809061528949
C           -0.01359003513250       -3.65850364808722        0.15253531846365
H            1.04790583902562       -3.65486943775396       -0.04622890501057
C           -0.66573285601117       -2.45544066268470        0.42604288337166
C            0.07446083831322       -1.18716281839996        0.41929164435261
C            1.04244577173934       -0.93281398389087       -0.55051946442017
H            1.23444454167757       -1.66732218746608       -1.31907843424242
C            1.73715299615721        0.25994913835211       -0.55514775600089
H            2.48298424636851        0.44010744124864       -1.31643196304505
C            1.49477948382868        1.23233865716342        0.40850379815996
C            2.23856019871081        2.53634217855504        0.37194696352370
H            2.13400716905110        3.05042776853540        1.32898880999703
H            3.30057601508030        2.34391987840208        0.20282237684989
C            1.72058341322986        3.44636920464598       -0.74953967029435
H            2.34682234750501        4.33982019871697       -0.80183063506162
H            1.80305377814033        2.92297788151622       -1.70459684608437
C            0.26881634283085        3.85656997406730       -0.52304584088364
H           -0.36300273046548        2.96821065413483       -0.46001825244276
H            0.17708661798600        4.40260367684086        0.41826291370603
C           -0.23554357859838        4.74006850280141       -1.65393067676687
H            0.33839927425046        5.67013092259421       -1.72776607837309
H           -0.21591456531759        4.21471817204288       -2.61472571665386
F           -1.54257286129084        5.10212547502736       -1.43040537736796
C            0.53285811891321        0.97696102032140        1.37730148395809
H            0.33358639603378        1.71713695319370        2.13902969481502
C           -0.17039819166262       -0.21243591731723        1.38335846239132
H           -0.90036125770551       -0.39780263648634        2.15773513133493
C           -2.03258592755745       -2.48040228584943        0.70586041195558
H           -2.55279543884982       -1.55446506209523        0.90141010835179
C           -2.73232316159355       -3.66856927381507        0.71045589020167
H           -3.79156501561417       -3.68232029401963        0.92177421065498
C           -2.06885701586702       -4.86550564818082        0.43646724930420
C           -2.77896965176358       -6.08667917160398        0.43964715099278
N           -3.35221917784302       -7.07991524197689        0.44258309234372
