70
 energy: -118.699181757486 gnorm: 0.000136820608 xtb: 6.7.1 (edcfbbe)
C            3.01825848016211       -9.68064358555136       -2.29972632381462
C            3.87171973618238       -8.99534056458669       -1.23833496434528
C            4.37058069573243       -7.61192638627334       -1.66245015331015
C            3.27373728122328       -6.56507860697559       -1.85599912364354
C            2.58880826551181       -6.17689761698111       -0.54425602170898
O            1.66987980650792       -5.11440937331354       -0.71890665697214
C            0.46375502681685       -5.33517772711830       -1.25976527800547
C           -0.04078771009762       -6.58715810647123       -1.58451030245684
C           -1.32352206659678       -6.74310154915270       -2.10638062259429
O           -1.67980903620527       -8.02077249772131       -2.38480492109887
C           -2.96488004762922       -8.26870708727107       -2.90676429193337
C           -2.13082860229638       -5.62517066737232       -2.30510741882293
C           -1.64070973794390       -4.37868315981374       -1.97750408204814
C           -0.35979625212038       -4.20133424092293       -1.46412559270350
C            0.14679824208092       -2.85358685826623       -1.16336861134853
O            1.29584989643154       -2.52559490543414       -1.04230025095452
O           -0.89516046886688       -1.97745503749223       -1.01735581750690
C           -0.67067076614306       -0.64040314372706       -0.79192795244071
C            0.31859637133400        0.08762828167680       -1.44485584962544
C            0.44552156099767        1.43704822078984       -1.18592041032008
C           -0.40657561632982        2.07426502757729       -0.28582485328974
C           -0.20611229202364        3.51780798121838       -0.03827165631753
O            0.62954584652387        4.19428929786255       -0.58160189992915
O           -1.09376282900620        3.99256049748168        0.86622261806751
C           -1.04924982094593        5.29936846019015        1.30977729933285
C            0.13320813386678        5.98744213325251        1.54764456391748
C            0.08126613424344        7.27731090135831        2.03951389749304
C           -1.13597593923204        7.89402472496401        2.32070155986610
C           -1.17763980698600        9.26007000938994        2.85528938863493
C           -0.30788419652060       10.23932929335837        2.36906807968280
C           -0.34212351088831       11.52327320283993        2.86955740600699
C           -1.25183491718201       11.83962235213901        3.87280333287434
N           -1.28992244355554       13.17587610853453        4.40128415465230
O           -0.50894230861906       13.98596846150482        3.94634436143796
O           -2.10100237006473       13.41583668728902        5.27205104835403
C           -2.12530356159080       10.87950482942712        4.37201374835478
C           -2.08574802578835        9.59992658226586        3.86115151169098
C           -2.31355001828911        7.18297728146739        2.09013242163814
C           -2.27349127245376        5.90145392076994        1.58306091084572
C           -1.40478192226651        1.33963955622268        0.35307309335375
C           -1.53515319685158       -0.00860075811950        0.10033004405880
H            2.76885563838413      -10.69168697917612       -1.98586132371980
H            3.55912314872232       -9.73833273192591       -3.24181984737631
H            2.08824834914833       -9.14525299067347       -2.47231950287913
H            4.74468879770745       -9.62047166950911       -1.03642411475355
H            3.30822256105977       -8.91943591057081       -0.30678653964954
H            4.91621811789604       -7.71475446109510       -2.60304228184247
H            5.07460873139842       -7.24661533647858       -0.91111342243295
H            2.53148155381030       -6.92430535261563       -2.56948311894197
H            3.71566211253589       -5.65867230753447       -2.27473582052471
H            3.33089407391330       -5.77726113101267        0.15246402042629
H            2.09769157905468       -7.03568602276199       -0.07387942630669
H            0.53492845373065       -7.48600068763482       -1.44104817136717
H           -3.02279321625505       -9.34723214640919       -3.04359621532640
H           -3.10793652726580       -7.77334158241765       -3.87183484531806
H           -3.74770439563650       -7.94920755418287       -2.21233962858304
H           -3.12491603517492       -5.71512569037007       -2.71056603107161
H           -2.25973864057008       -3.50919164738084       -2.13308664460941
H            0.98360327949564       -0.40079622638553       -2.13807212037277
H            1.20815763652982        2.02161370322792       -1.67746359655090
H            1.08396177617625        5.52177919356689        1.34637917156442
H            1.00397999144829        7.80140111651100        2.23762925321241
H            0.38323475708064        9.99132524091173        1.57837596507103
H            0.31998602018053       12.29066599048057        2.49861537377301
H           -2.81715220488157       11.15329804186920        5.15385242313313
H           -2.74806153440929        8.84552848331495        4.25708893340251
H           -3.26810196621745        7.64952535799732        2.28150498089592
H           -3.18137715454762        5.35066874366083        1.39261135854432
H           -2.06910906929896        1.82784291281614        1.04843187613415
H           -2.29898257517198       -0.59546029520860        0.58650291041128
