57
 energy: -110.854549496332 gnorm: 0.000148401796 xtb: 6.7.1 (edcfbbe)
C            3.53492688884745       -1.12164243775934       -8.22064130955070
C            3.30899826056595       -0.81920644146570       -6.74355869452305
C            1.83900676595618       -0.89902434743887       -6.33092170290655
C            1.25039128029513       -2.31367708299464       -6.35161285331436
C           -0.27644092855976       -2.26429635874591       -6.20827098466749
O           -0.65363717352409       -1.79763892002468       -4.92656397226374
C           -0.11546353090649       -2.58990143517629       -3.90592133859563
C           -0.56555294553412       -2.03078125447699       -2.57699809907012
C           -1.85283056707129       -1.52948459758084       -2.44771280015965
C           -2.26438468209695       -1.03018476430425       -1.22697204606758
F           -3.49870167099029       -0.52893497636395       -1.12533624335359
C           -1.42502158526549       -0.99932840869775       -0.11250258236705
C           -1.91328765966368       -0.47867972478397        1.20052798832751
O           -3.00173512359400       -0.69306792721938        1.65240104126257
O           -0.93924139498960        0.24044042140249        1.78454346116221
C           -1.04648947666792        0.82296050173410        3.02583740606479
C            0.16620746193337        1.12630134073181        3.64222679368198
C            0.18024515525787        1.73807916517214        4.87598358437181
C           -1.00389684406922        2.07954395533953        5.53193766767374
C           -0.97331509010703        2.73333180747884        6.84729330074083
C           -0.05721016718764        2.30728891610573        7.80906028682604
C           -0.01584071962034        2.92457635763392        9.04065593247000
F            0.86872731337793        2.49578611535444        9.95064561820998
C           -0.86650704213758        3.98467325078646        9.36868873913594
C           -0.80913872337576        4.61515045307036       10.63311632671694
N           -0.75960137460110        5.12569395107291       11.65644238054163
C           -1.77417047056391        4.39110811894197        8.38579854391624
F           -2.60251710333989        5.40775656562627        8.65173988805551
C           -1.83687648814742        3.78507908881476        7.14825552089209
C           -2.19705182923907        1.76648415555760        4.88365419882713
F           -3.36990739197847        2.04968166773654        5.47853951576949
C           -2.24341090398280        1.14444441199937        3.64932252919125
C           -0.13776841713251       -1.50606015168042       -0.28624832451956
F            0.70711724954303       -1.52649162915057        0.75455970505436
C            0.29719181483937       -2.02261302639710       -1.49144567573534
O            1.28032367952627       -2.63845402579749       -3.94259139170156
C            1.75897990046627       -3.15193571440280       -5.17216970246382
H            4.58041378920538       -0.97105163159693       -8.47903541765938
H            2.93134518574325       -0.46239938218486       -8.84056713205019
H            3.27554344465140       -2.15020107805328       -8.45889942384369
H            3.66162712207570        0.19346591263485       -6.53674405479554
H            3.90719863678076       -1.50121302471331       -6.13702041581304
H            1.25320056660252       -0.26714939767518       -7.00240990943479
H            1.72511435549718       -0.50300614953280       -5.31977307961063
H            1.49810214181576       -2.81875255668865       -7.28770990246829
H           -0.69890187039731       -3.26967513666465       -6.36975549268962
H           -0.72696406752432       -1.56848789195049       -6.91735377124124
H           -0.51173773817323       -3.63092499237754       -4.01685715249400
H           -2.52322590968289       -1.51323721249964       -3.29086330513007
H            1.08166444312023        0.86904785702112        3.13471027014559
H            1.12414166982469        1.98136660314987        5.33812706893972
H            0.60981197561519        1.48288111640797        7.61432238877910
H           -2.55346904859720        4.14692344398674        6.42900320753142
H           -3.19947318140258        0.91592565058894        3.20816303174344
H            1.30022627915672       -2.40312540376834       -1.58846044706192
H            1.42741176087198       -4.19655954769266       -5.28740440884565
H            2.84583397851029       -3.13080419839356       -5.09325476161250
