47
 energy: -67.731177413391 gnorm: 0.000276548630 xtb: 6.7.1 (edcfbbe)
H           -2.73970930854095       -6.26728727348765       -5.78760097604165
C           -2.81422664876614       -6.10702076519854       -4.72245825399938
C           -2.27793221704460       -4.97644464527969       -4.14648048382760
H           -1.77470840267370       -4.23304888247012       -4.74488194574556
C           -2.38390247485214       -4.77486918793697       -2.77133991525376
O           -1.79301576890794       -3.62756868966553       -2.28744220360586
C           -2.32648226085314       -2.92253567036958       -1.25896713733025
O           -3.33314320530277       -3.23633681460558       -0.67697052914253
C           -1.54695490182706       -1.69806841647484       -0.98921385096097
C           -2.10456853554279       -0.73929062285070       -0.14350437679080
H           -3.06347413960884       -0.94348196850739        0.30830989550651
C           -1.44740303955654        0.45110712431310        0.08290632272469
H           -1.89587253524805        1.19893067047325        0.72053616104786
C           -0.21831569666854        0.71148003063515       -0.51766003343197
C            0.46973934295916        2.02351731342649       -0.28934059241462
H            1.23214631838474        2.18081949144949       -1.05458029771035
H           -0.26265888950057        2.83064268735746       -0.36932837692088
C            1.12688469355478        2.09700104346462        1.09450717253256
H            0.37640679385639        1.90101939193225        1.86310102175511
H            1.89221628797682        1.32199876506433        1.17446888803226
C            1.75272901226421        3.46939240418060        1.32948205790962
H            2.51821057750062        3.65180299552020        0.57145583215644
H            0.98406882277857        4.23725351436676        1.21122532355951
C            2.37703763025758        3.60143560548999        2.71624276907236
H            1.61509795149759        3.41079892301296        3.47577832778197
H            3.15918561796813        2.84849833022631        2.83766231431012
C            2.97062250089316        4.99143570507084        2.93427060826173
H            3.74306314340772        5.17555940789006        2.18362426949233
H            2.18889455864523        5.74182320021581        2.79249099090009
C            3.57401652530508        5.15571780059300        4.32680263494695
H            2.80254545766893        4.97119915821758        5.07794655365587
H            4.35992108803782        4.41073152497734        4.47048822211641
C            4.15385148494293        6.55036823586492        4.52920683789282
H            4.93954524604409        6.74603161958690        3.80253743008360
H            3.38070695886182        7.30607752526201        4.40709119136052
H            4.57619872086737        6.64986337625167        5.52633602516616
C            0.34956941418487       -0.26571498597107       -1.32833330733636
H            1.31020794539085       -0.08166988728289       -1.78760032708785
C           -0.30476068853173       -1.45728732349353       -1.57143763719776
H            0.13884845798725       -2.20170127497993       -2.21427145873966
C           -3.01529601871267       -5.71732531202181       -1.96770906335376
H           -3.09061634782227       -5.56427731410983       -0.90387666391259
C           -3.55873613836471       -6.84786363495077       -2.54616310580603
H           -4.05760512009817       -7.58254332088204       -1.93209865364356
C           -3.46599112716764       -7.04812348666528       -3.92286766920866
C           -4.02990826872076       -8.20318451057447       -4.51116279717173
N           -4.48642281692803       -9.13885185706692       -4.99119119363083
