45
 energy: -55.891652332531 gnorm: 0.000240582447 xtb: 6.7.1 (edcfbbe)
H           -4.51758157933095        0.65082355252753       -1.11002260335399
C           -3.45209271419273        0.72768524465376       -0.95144665224569
C           -2.83831018820125        1.95917229481062       -1.18316090248142
C           -3.69584213376150        3.08574671565959       -1.63140762298173
O           -4.88569696909195        2.93941647864626       -1.80643877184037
C           -3.01377897750443        4.42178366502721       -1.85748501483544
H           -2.51709009267131        4.71691903642457       -0.93008907071212
H           -2.24556410040822        4.28867488139826       -2.62332141355459
C           -4.00384216968963        5.49558620139670       -2.28825922675648
H           -4.49663062351909        5.20263567540317       -3.21174926662037
H           -4.76890530379599        5.62679584382559       -1.52725375637919
H           -3.49482961814334        6.44370346992912       -2.44456710404211
C           -1.46244622921108        2.06056513654873       -0.98032883739041
H           -0.94780774219297        2.99371761607552       -1.14997590372832
C           -0.73522714821813        0.96553022924960       -0.55914614647174
H            0.32920146797785        1.07218672206835       -0.41027651926244
C           -1.34694125146073       -0.26296977577990       -0.32570881046288
C           -0.55516083234471       -1.45510898639341        0.13784388004847
H           -1.24013311007909       -2.30440994836124        0.24361845081924
C            0.09151429205194       -1.19754852562104        1.50347696267840
H            0.75521758722203       -0.33483182971914        1.44108049703980
H           -0.68625404925279       -0.95897789381114        2.23301662350957
C            0.87005612909752       -2.42377314962698        1.97128101848725
H            1.32612149767944       -2.21844250201097        2.94080318465213
H            0.17041132667848       -3.25227820687841        2.10894302737118
C            1.94258802826189       -2.85881781309311        0.96636719464339
H            2.34485471470961       -3.82350166147613        1.30022266060007
C            3.12333345436709       -1.88403715669363        0.87843873679357
H            3.72220137492174       -2.14653947921205        0.00238128382915
H            2.76589230603697       -0.86435554204157        0.73509876112296
C            4.02960679824884       -1.91997288889395        2.10751592175557
H            3.46693957611491       -1.62228675408012        2.99420308274387
H            4.38290798770368       -2.94157569339499        2.26668586766400
C            5.22703587626790       -0.99103015379542        1.94504531197437
H            5.82004152092062       -1.27930933844330        1.07936136317893
H            4.89733622606941        0.03672106877558        1.80587616065152
H            5.86460146497732       -1.02950161602403        2.82534232840161
C            1.28445226906051       -3.07703465291104       -0.40113775271212
H            2.04434929120580       -3.34729691345447       -1.13765595108020
H            0.58621924687908       -3.91467819443083       -0.32548086598582
C            0.52374326194365       -1.84405652085910       -0.87886751673089
H            0.05408350433459       -2.05267003426175       -1.84316501513163
H            1.21689110522061       -1.01509390457091       -1.02271076770342
C           -2.71893617551595       -0.36195668428964       -0.53034244617795
H           -3.21649929936943       -1.30560801229754       -0.35661437932472
