43
 energy: -66.625924769890 gnorm: 0.000193857494 xtb: 6.7.1 (edcfbbe)
H           -7.52301637269384        3.90239780876287       -3.04286174896658
O           -6.64198096430567        3.51536936356252       -3.03977032692359
C           -6.56766725343729        2.53584611823283       -2.02600143594665
H           -6.79104614586493        2.97962059023450       -1.04454876549389
H           -7.29832474164997        1.73430097973539       -2.21301295517303
C           -5.15709930027633        1.95668008959446       -2.02030634445982
H           -4.94766263815988        1.55634540018830       -3.01348022625222
H           -4.45234725751948        2.76843999806006       -1.83550933573432
C           -4.98857406842297        0.86640608861619       -0.96730193460494
H           -5.22159368738449        1.27485168871378        0.01851483089463
H           -5.69612241337015        0.05727732560188       -1.16588142458642
C           -3.56826304371540        0.30841868685515       -0.96008412399406
H           -3.32668090139964       -0.07672321907237       -1.95362392212490
H           -2.86416984271069        1.10889170178889       -0.72961824506840
C           -3.39778739500444       -0.80662588743519        0.06920999703545
H           -3.65042623100701       -0.42881515781353        1.06093454142591
H           -4.06508917357076       -1.63859620016574       -0.16309979273631
C           -1.96486001408565       -1.32758766774631        0.10188179101204
H           -1.89160327629417       -2.19971569145259        0.76655117693588
H           -1.64828689759789       -1.62366049588711       -0.90762645569160
O           -1.13988043323502       -0.28523463827240        0.58312461193712
C            0.19234776358981       -0.48415392174980        0.66243352388516
C            0.87001393321056       -1.65134870413160        0.32270349870830
H            0.32596227047954       -2.50507500972703       -0.04823997243947
C            2.24474565093570       -1.73663386212644        0.45285098453529
H            2.73868354537274       -2.65131915934709        0.16201680538312
C            2.99949371625381       -0.66458729093702        0.91608609132788
C            4.45835285402075       -0.76060943050140        1.04316719216287
C            5.27373633742919        0.32257336357870        0.71114255325253
H            4.82563024073561        1.23231640622797        0.34093359085529
C            6.64524477785298        0.23691749801168        0.82347930135411
H            7.27194477093416        1.07606367157504        0.55936772489469
C            7.23201163067002       -0.94486512042037        1.27863037616318
C            8.63665722248500       -1.03923151619116        1.39656241243596
N            9.77673986406948       -1.11661483950097        1.49175258686171
C            6.42714173174497       -2.03386879281935        1.61655278951528
H            6.88490792005647       -2.94476959825096        1.97360662008894
C            5.05703083474717       -1.93727315913171        1.49631280876667
H            4.43734827848859       -2.77569316638083        1.77697519965546
C            2.33198274227431        0.51305559963838        1.25539197648733
H            2.86630883973380        1.36719518303138        1.64052424975743
C            0.96527405849279        0.58744655076927        1.13262494971386
F            0.34092306812584        1.73260841628805        1.47762482514926
