46
 energy: -106.490448919259 gnorm: 0.000688121368 xtb: 6.7.1 (edcfbbe)
C           -1.08572905432580        6.21644830395316        6.98228531475970
O           -0.79082290121239        6.12624213901836        5.60409281857135
C           -0.76727517002633        4.91743532765092        5.01831164152022
C           -0.47005102930432        4.89909979393920        3.64756407462327
C           -0.42613173644584        3.71513467646853        2.95640219615929
C           -0.67686217274769        2.49172218502842        3.59098257643967
C           -0.65776012349819        1.21394436130079        2.86095266915764
O           -0.99262935604638        0.14387467611322        3.28376770421175
O           -0.16750905050938        1.39719987407810        1.59185285242946
C           -0.10516202925854        0.36790744608710        0.69493939636974
C            0.96002677008258        0.39044403519922       -0.20252840029123
C            1.07484047991724       -0.59261310237832       -1.16149528256646
C            0.13743712698255       -1.62010057442411       -1.24439424482680
C            0.34347618049057       -2.71929968275956       -2.22699379903230
O            0.12923700773893       -3.87902757769045       -2.02540670536305
O            0.84063720057747       -2.20429267928289       -3.37886383735560
C            1.18004884361167       -2.96002524903182       -4.47113940163117
C            1.27781686113244       -2.24547354297458       -5.66538597740522
C            1.65373011337677       -2.89948549034564       -6.81782943128936
F            1.74649060993035       -2.20211704673085       -7.95454520399676
C            1.94428524627976       -4.26793933683179       -6.83118430650449
C            2.33696450536158       -4.92976803036131       -8.01848398620245
N            2.66008945819258       -5.46128540528216       -8.97908333426606
C            1.83432754427133       -4.94772578687781       -5.61536283911758
F            2.10921688892504       -6.25371691159517       -5.58022323129924
C            1.46181860719721       -4.32105000160695       -4.44079061668622
C           -0.94423409263075       -1.61810594749367       -0.35920868342764
C           -2.03403242629972       -2.65936758993202       -0.46853396093977
F           -2.39291499417642       -2.88239066634540       -1.74465080215259
F           -1.69588206985234       -3.83469430261538        0.06527082347222
F           -3.15669354973621       -2.27124173583817        0.15748904502525
C           -1.07062604127480       -0.63025010103525        0.60427650612141
C           -0.96743389835241        2.52967471400075        4.95642142777086
F           -1.20312727132990        1.40153826096376        5.63162064074170
C           -1.01349238927101        3.71204323905345        5.67107755149432
H           -1.04615029890137        7.27753395661189        7.22107399389070
H           -0.34566506502543        5.68116838109792        7.58385823162953
H           -2.08589591652311        5.83216992764246        7.20177377750774
H           -0.28060497509151        5.83952069391327        3.15632881685242
H           -0.20076169919517        3.71585284294043        1.90242204258686
H            1.68755371910331        1.18324998528954       -0.12925849880174
H            1.90629401081831       -0.58196909238375       -1.84823669477526
H            1.06048997485726       -1.18998458695391       -5.68491024294694
H            1.38695222626914       -4.90080221642906       -3.53570137959485
H           -1.91187331615485       -0.63995973495089        1.27863861996263
H           -1.24241274798247        3.66049157176269        6.72282813916165
