54
 energy: -69.097619872757 gnorm: 0.000120324068 xtb: 6.7.1 (edcfbbe)
H           -4.54924301624180       -6.18959517882224       -0.35443350668501
C           -4.08819196230464       -5.80871868757613        0.54523445654813
C           -3.41607565018097       -4.60488698068589        0.53473920005459
H           -3.36245687398944       -4.03144824926001       -0.37884890984261
C           -2.82558289420779       -4.10402911506353        1.69571927162365
C           -2.11166338956759       -2.82133621896388        1.68006564993526
C           -1.28183976427337       -2.47837179344517        0.61486370609324
H           -1.14773684639006       -3.17303754582784       -0.20183571082765
C           -0.60402532605064       -1.27599300064968        0.60697118075329
H            0.03914083157453       -1.04376926158109       -0.22889365108555
C           -0.73652545716245       -0.37046225275502        1.65433578659547
C           -0.00588977972779        0.94534464168711        1.65114983637841
H           -0.24988431557566        1.47747897485638        2.57818566663169
C           -0.44522533905925        1.82290031328709        0.47409787053185
H           -0.24770002714362        1.30593691026826       -0.46528035948577
H           -1.52307709839219        1.99366373554023        0.53251363765064
C            0.28500763953003        3.16240358096262        0.49788680422964
H           -0.03839857829810        3.77051486357398       -0.34808407998771
H            0.00666901420592        3.69774108503216        1.40950110285347
C            1.80902751324049        3.00150645006073        0.47868267067191
H            2.25384712337609        3.98965470838235        0.65051008857340
C            2.34962534533673        2.49141193304354       -0.86282662516242
H            3.39955622183598        2.21786955965915       -0.72846520726528
H            1.81599822893287        1.59245117465192       -1.17144012238379
C            2.26090278382440        3.52684232355609       -1.98219249098679
H            1.21627730080568        3.77787306345962       -2.17593627652905
H            2.76839414531609        4.44287453422302       -1.66968097443236
C            2.89349244522014        3.01724477810984       -3.27520950830382
H            3.94454821245535        2.77876773651628       -3.09467017597183
H            2.39465609667986        2.09472749894748       -3.58279438427601
C            2.79713904768901        4.03971373813622       -4.40482651748056
H            1.74643674304446        4.27768549019143       -4.58698443981131
H            3.29602748330224        4.96224117551512       -4.09897982507037
C            3.42953091250256        3.52492121201965       -5.69195600083046
H            4.48281073576021        3.30119056844746       -5.53649390029686
H            2.93288855429502        2.61557031211858       -6.02385273191222
H            3.34956902348083        4.26747300512310       -6.48249359305953
C            2.22851334138540        2.09331637826132        1.64060200895444
H            3.30895124403047        1.93526952537433        1.61400352846944
H            1.99196138744873        2.59586817074997        2.58217381110847
C            1.51292828668973        0.74641213333641        1.60847594859611
H            1.82360054837535        0.14500398437204        2.46641353193259
H            1.79223409027954        0.20141210088844        0.70667890276270
C           -1.57066335430069       -0.71231649677910        2.71187721827852
H           -1.69548730851309       -0.02261680888559        3.53489971580029
C           -2.24464494012745       -1.91781708461892        2.73107078067029
H           -2.90053941912454       -2.15125907488402        3.55727582053405
C           -2.92469251583396       -4.84579073354109        2.87365912381151
H           -2.45604780686181       -4.47748529220646        3.77423315778084
C           -3.58992172078353       -6.05317601156806        2.89621761988515
H           -3.65817662577822       -6.62697259069411        3.80896137296907
C           -4.17815732814004       -6.54289144997366        1.72896744236216
C           -4.86178503034564       -7.77869615101512        1.74579051231827
N           -5.41613193225972       -8.78260568148660        1.76044156642138
