38
 energy: -56.230861920538 gnorm: 0.000084088772 xtb: 6.7.1 (edcfbbe)
H           -0.88020712673851       -8.05421611602152       -3.94637465644523
O           -0.10243136818883       -7.60956396731569       -3.59514869186470
C           -0.47949137120515       -6.35238690367894       -3.07648227521954
H           -0.92924789847527       -5.72974394092022       -3.86434732323821
H           -1.22096203914431       -6.47396767825421       -2.27264125268326
C            0.76750210240762       -5.66710839682187       -2.52765815371007
H            1.20432585426790       -6.31173236131566       -1.76282041431707
H            1.49292212039849       -5.57559151059913       -3.33803329229122
C            0.44967352658546       -4.29504295163376       -1.94464572514427
H            0.00390315045601       -3.66107709563570       -2.71482740040618
H           -0.27988754310323       -4.39704088221626       -1.13772418196458
C            1.71061771224340       -3.61319462188542       -1.39980096198549
H            2.44205054230357       -3.49219553987062       -2.20418192235598
H            2.16003025660678       -4.23699235722246       -0.62147809777556
C            1.39369388260238       -2.31549742848938       -0.84409166115447
C            1.08601834445049       -1.24334027599977       -0.39258629090463
C            0.72276808521675        0.01587917557562        0.13882175728972
C            0.18972628294505        0.11126349418496        1.42523951867146
H            0.07583174084085       -0.78410739492025        2.01881561864032
C           -0.18942672023077        1.33638817361351        1.93127563801091
H           -0.58692349958622        1.39998240171176        2.93398441845736
C           -0.03905073607629        2.49921823674194        1.17568078406328
C           -0.45585086718599        3.79996917294521        1.71246837274135
C           -1.63950237079675        3.91820644889364        2.44275623755611
H           -2.25694003501370        3.04613466421018        2.59986246572122
C           -2.04456963645206        5.13776089333917        2.94187764704785
H           -2.96528352691438        5.22541346756776        3.50005921138436
C           -1.26174503459630        6.27216217129534        2.72139498684384
C           -1.67202188866540        7.52440405318327        3.22991879135595
N           -2.00634874183176        8.54096104019703        3.64237586352070
C           -0.07384448225978        6.16586114764400        1.99623023112249
H            0.53124890976114        7.04562120080134        1.83243908802056
C            0.31794287119352        4.94147762552403        1.49787483363163
H            1.24585442975515        4.86041548002130        0.95123072573603
C            0.50708612532014        2.39981828455153       -0.10394334546985
H            0.61341088763363        3.28895277713125       -0.70858459584618
C            0.87909661242495        1.17659691513033       -0.62018469754555
H            1.29003144905504        1.10630259850272       -1.61676124949226
