44
 energy: -92.361191887661 gnorm: 0.000326610437 xtb: 6.7.1 (edcfbbe)
C           -7.71046590647775        2.28197027959990       -5.01348956254987
O           -6.56686215176361        1.47732397120226       -5.20729890993621
C           -5.66141424002000        1.37940086938759       -4.21755595420192
C           -4.55253697907437        0.55971159273516       -4.47117722317505
C           -3.57576160559456        0.38995117946487       -3.52268453300250
C           -3.65103513190265        1.02455549024547       -2.27669303785304
C           -2.61657142697806        0.84126465166349       -1.23966440219612
O           -2.63098829951454        1.32018088154366       -0.13888603835485
O           -1.63337891680987        0.01397087598817       -1.69223084224110
C           -0.54035270836733       -0.31377280794272       -0.92610427276216
C            0.00030658456119       -1.57929407091482       -1.15434747547006
C            1.11414900657809       -1.98565064854454       -0.45574254122584
C            1.70304411550043       -1.13768041734954        0.48460617504374
C            2.87810125751972       -1.63884160365830        1.22287899324197
O            3.41391618340612       -2.69539334018694        1.01454453699144
O            3.26504587523697       -0.75313727319132        2.18215734692140
C            4.30576122315168       -0.93051378857573        3.04545270627910
C            4.41390907550150        0.05318130712217        4.03634829935427
C            5.42478450648560       -0.01007018371548        4.96312113596340
C            6.35730803378382       -1.04787453894860        4.93524106911290
N            7.39690355145844       -1.06632116887278        5.93867495854477
O            7.39706505085068       -0.15388985107413        6.73833849571732
O            8.19372744808578       -1.97342113864484        5.92706538259846
C            6.24269702863135       -2.02028620813045        3.94162324540081
F            7.10267448236567       -3.03142891328665        3.85627284141743
C            5.22807195564519       -1.96862887447975        2.99914132584226
C            1.16752049046853        0.13144854861538        0.69331956743163
C            0.05507942813464        0.54835032031428       -0.01084396154636
C           -4.75960704897865        1.84037074932781       -2.04518750562373
F           -4.89900247341352        2.48774436908981       -0.88366624487423
C           -5.75443392237738        2.02505275803190       -2.98769427297883
H           -8.28636080770823        2.19840349148419       -5.93314542060942
H           -7.43840132642413        3.32848496999151       -4.84947255733390
H           -8.31283067185818        1.92296650011107       -4.17424212626129
H           -4.49205836567632        0.06809310878350       -5.42840759147733
H           -2.72946055925344       -0.24412829670209       -3.73094670051896
H           -0.47107568896074       -2.22516871750060       -1.87826485746468
H            1.54301996538261       -2.96305973822120       -0.61445505953212
H            3.69102758963367        0.85213390650589        4.05669126684831
H            5.52224462290875        0.73799082684738        5.73516253357934
H            5.17347263597447       -2.74267636617983        2.25120269468898
H            1.62606699284497        0.79744256751794        1.40650179639274
H           -0.35399386442672        1.53054488546243        0.15828068165814
H           -6.57929500852932        2.67068984508389       -2.73443396184038
