59
 energy: -75.141442310751 gnorm: 0.000113313871 xtb: 6.7.1 (edcfbbe)
H            1.20885983399391       -2.68607078628206       -0.00580731720237
C            1.03097893192367       -2.03443509288490        0.83777273217722
C            1.61200772624377       -0.78156455492327        0.87292794035520
H            2.25447320048791       -0.47045768664506        0.06109995213232
C            1.38428414657476        0.08123172090686        1.93771712084825
C            1.98880627683649        1.45433411090463        1.97339099382205
H            2.32665772911023        1.67404235989452        2.98927224823655
H            2.85711888588780        1.49741333272829        1.31484917864985
C            0.96944000105694        2.52666674455370        1.56263340945365
H            0.10983538358226        2.45781673416492        2.23378886504460
H            1.41869937548135        3.51374539524982        1.69832954086687
C            0.47431041179207        2.39211469641742        0.11950768170800
H            0.16339955915758        1.35414411857658       -0.04522281541741
C            1.56077189610113        2.74529771906896       -0.89621279894563
H            1.91122836996278        3.76271975669702       -0.71154601130668
H            2.41723138240152        2.07879491921704       -0.77900479716991
C            1.03913008029629        2.62259560096632       -2.32518920335502
H            1.83400167896253        2.87286360796231       -3.02983897617712
H            0.75851909789709        1.58130985729046       -2.50500656118083
C           -0.18844286281476        3.50210371949245       -2.58122218006675
H           -0.58946560149862        3.24299307826449       -3.56945294331136
C            0.12849215566220        5.00226537784707       -2.60298647837977
H           -0.81685642349896        5.55157750862079       -2.60468962531236
H            0.67024591517044        5.28927030462354       -1.70175230994347
C            0.93746249779874        5.43468526548426       -3.82437361251130
H            1.91495797098731        4.94924962768873       -3.81449699288018
H            0.41897084438219        5.11804185111771       -4.73264575487205
C            1.13545477903038        6.94565526479956       -3.85636389914348
H            0.17542213041031        7.45615514743547       -3.89619564101135
H            1.66281563618691        7.28044851150275       -2.96538106526968
H            1.71596469599120        7.23884102084099       -4.72825232484392
C           -1.25939233893147        3.16544486930797       -1.53793768420459
H           -2.12622887025357        3.81609002714055       -1.67468988410337
H           -1.59100550295232        2.13584071704420       -1.69524363335526
C           -0.73829841255342        3.29606720878927       -0.10987434756363
H           -1.53385154204596        3.02384305718051        0.58795180941924
H           -0.46331909346011        4.33297429622464        0.09258342821747
C            0.55102041769528       -0.34482888015756        2.96512616640148
H            0.36567814627790        0.31038067610383        3.80455463347516
C           -0.03649999466220       -1.59390663144497        2.93514892896241
H           -0.66859115005484       -1.90741939816790        3.75225700765963
C            0.19746340367099       -2.45862091519696        1.86915166028351
C           -0.39757838546393       -3.80287438171735        1.83598060659063
C            0.36138801768329       -4.91332038772272        1.47073288064913
H            1.40185204292721       -4.76982172007833        1.21961492019190
C           -0.18068830759434       -6.18317239194505        1.45041136265554
H            0.43898287270757       -7.02304248531570        1.17164842645193
C           -1.51051053673732       -6.39884709417606        1.79137302472930
C           -2.11175952359534       -7.77265529472081        1.72833143776068
H           -1.35396120062418       -8.51854732583811        1.97592428418973
H           -2.92357338427671       -7.85537002565359        2.45322871646544
C           -2.65670738498686       -8.05391086516101        0.32633502250139
H           -3.42240541952255       -7.32699445410761        0.06544032720462
H           -1.85874488192494       -7.98882226964938       -0.40983062534366
H           -3.09203350063783       -9.04931910845657        0.28059122398462
C           -2.28604189037813       -5.30400921068764        2.14577291308422
H           -3.32637999959234       -5.42182223517600        2.40892147065994
C           -1.72890631690169       -4.04091428671835        2.16742013938387
F           -2.53463296941366       -3.00627072122391        2.50344742857502
