42
 energy: -58.796899060682 gnorm: 0.000154088345 xtb: 6.7.1 (edcfbbe)
H           -0.72184043868355       -7.30679913587100       -1.45827895547798
C           -1.13979593756844       -6.49162380018959       -0.88583453127282
C           -0.50075818987447       -5.27101264500161       -0.83201331411125
H            0.43342063747742       -5.13378788837128       -1.35620700921227
C           -1.03025100403437       -4.21761955281986       -0.08553275157687
C           -0.33398976719318       -2.92631631130404       -0.02029480283647
C            0.25104091551116       -2.37139839805936       -1.15609004003919
H            0.16423809852422       -2.88118551966815       -2.10469072555699
C            0.91802251077458       -1.16388881142056       -1.08574683072646
H            1.36266524544849       -0.74701459609831       -1.97832017783294
C            1.03374286135988       -0.48146985653850        0.11880595257182
C            1.74456481005418        0.83752224916772        0.19403515999013
H            2.23420308717200        0.93764496678033        1.16520031198379
H            2.51135072086370        0.89242463484877       -0.58134552569342
C            0.76093759107444        1.99936210315362        0.01056995018757
H            0.28420774202025        1.91510901214209       -0.96875783193290
H           -0.02403411177823        1.92625071479312        0.76693098188506
C            1.46012856682727        3.35091289063669        0.12859692431300
H            1.94310184638100        3.42203808595041        1.10616274851235
H            2.24229143893665        3.42185390271200       -0.63089420895552
C            0.48830643611510        4.51663730183891       -0.03712425116986
H            0.02048107933150        4.46021356217935       -1.02322000914705
H           -0.30447168964177        4.43370981606717        0.71073790592366
C            1.19360048445562        5.86156783161367        0.11723561441007
H            1.66026110881842        5.91930534091600        1.10339824427285
H            1.98592718636093        5.94911047946237       -0.62975803274640
C            0.21313476254476        7.02970483883701       -0.04600398165559
H           -0.24221597099134        7.00727577690935       -1.04046323790677
H           -0.58434058940633        6.96218026868452        0.69998260116438
C            0.88647796463133        8.29162422898427        0.12008716580760
N            1.43816466610142        9.28343889535914        0.25634575238980
C            0.44458263990219       -1.03268824991569        1.25040755382200
H            0.52633914857555       -0.51726465646841        2.19688849289328
C           -0.23295655556814       -2.23393276237438        1.18443299186931
H           -0.66331429120824       -2.65650635313915        2.08077889709559
C           -2.22660118791762       -4.41741238543406        0.60434725325169
H           -2.65623506034853       -3.60401071765165        1.17015383070184
C           -2.87816249302754       -5.63156454665269        0.55410145702620
H           -3.80659281929397       -5.78038857680774        1.08588460694075
C           -2.33548437323117       -6.67974165861985       -0.19083644691607
C           -2.99324126616619       -7.92895158907690       -0.23836627568208
N           -3.52692580332748       -8.94330888955467       -0.27530545656683
