48
 energy: -98.473561661530 gnorm: 0.000159086842 xtb: 6.7.1 (edcfbbe)
C           -3.12907756565277        6.04610294409190       -5.23282545237157
C           -1.69320295044215        5.54588181076497       -5.32928147921931
C           -1.40230912972047        4.46827412512633       -4.28818051377340
C            0.04533829021568        3.96569398392609       -4.37976818307734
C            0.29481798565796        2.90405372051638       -3.35472031229307
C            0.07492936291769        1.56475509572438       -3.65180042330684
C            0.27495678276648        0.59964560714204       -2.68599187065167
F            0.03710749740849       -0.68416618096939       -3.01279315330156
C            0.68201061304347        0.90005531894427       -1.38553562291033
C            0.89216460488468       -0.14069408726018       -0.36811581355192
C            1.59406672273789       -1.30085402161383       -0.68491713453313
C            1.79192803938666       -2.26527140537463        0.28256178314334
F            2.45523018125829       -3.37392058001457       -0.05309515814813
C            1.29454528344900       -2.13543794395730        1.58137296350624
C            1.55392294113158       -3.18971928079908        2.60040826567550
O            2.56883300709676       -3.81797835263475        2.69109332196107
O            0.47648347349084       -3.31190629332287        3.40779249711097
C            0.40074752510450       -4.17324561697850        4.46802153989691
C           -0.58869204510359       -3.86053414584758        5.40023671579802
C           -0.77377584275049       -4.68137767575723        6.49022128223416
F           -1.72408548237471       -4.37409005610706        7.37853896465749
C            0.00360644466837       -5.82694001703188        6.69470853955549
C           -0.19379758173318       -6.66341339503316        7.81833749341661
N           -0.35569456557258       -7.33941371503850        8.72758947731495
C            0.98190035791860       -6.10579739251140        5.73692729211008
F            1.74237705070545       -7.19328377904028        5.88959248460015
C            1.19195529514810       -5.30467934696802        4.63035549046735
C            0.59021462548232       -0.96388549742905        1.86350522756456
F            0.10580366594877       -0.76554733038384        3.09655281839780
C            0.39182756249312        0.02430997860711        0.92120171655695
C            0.88015375154820        2.25554095960274       -1.11964136681204
F            1.29461659668095        2.62394083081953        0.10671701289195
C            0.70117787117612        3.24059727708636       -2.06927408704659
H           -3.31712620952523        6.81112997396268       -5.98193793591996
H           -3.31993156286704        6.47316920648580       -4.25085322431415
H           -3.82980799899587        5.22969705726373       -5.39264927584777
H           -1.00654715825964        6.38284682670219       -5.18501187372908
H           -1.51628451782167        5.14069161797820       -6.32791586515048
H           -2.08374760703057        3.62734942957677       -4.43353984420795
H           -1.58021288831761        4.86960077732301       -3.28829332655826
H            0.72430622168529        4.80461317405200       -4.21976905907211
H            0.22102805205674        3.56607218229466       -5.37959711092291
H           -0.24880726940652        1.26029997977425       -4.63456919224519
H            1.99780849483081       -1.46115245035779       -1.67153161841353
H           -1.19628101128567       -2.98092483643146        5.26474527336625
H            1.96519309510542       -5.56726442185908        3.92731214260946
H           -0.15623062323001        0.90949225285540        1.20103825570948
H            0.88658061408605        4.26770369209761       -1.79719166116368
