64
 energy: -112.370910211626 gnorm: 0.000680462680 xtb: 6.7.1 (edcfbbe)
C            3.79116367720081        1.23402338687485       -8.35481874140607
C            2.65586303728657        0.94668369769545       -7.38143522262865
C            2.23731123862012        2.21227931108615       -6.62981312282594
O            1.21617167026116        1.97002483252553       -5.68363195646810
C           -0.06061818570563        1.80193869658671       -6.06188098452224
C           -0.52000883385401        1.96409462730765       -7.36878507701351
C           -1.86648448283182        1.81481826226684       -7.67495495279593
O           -2.38968674129323        1.94838722779142       -8.91624489410110
C           -1.54000829443963        2.26838225297571       -9.99258702319252
C           -2.77874084238902        1.50217306619156       -6.66162782715615
C           -2.33534741335238        1.34553047859446       -5.37282680074885
C           -0.98506861883937        1.48315773033527       -5.04338173434765
C           -0.52609673273286        1.26814930802675       -3.66287427850935
O            0.60310017789281        1.07268244139917       -3.30022716579053
O           -1.58463011886297        1.32966417717201       -2.79847322829036
C           -1.44119560224899        1.07727334963631       -1.45630552318424
C           -0.59491931510813        0.09966912082311       -0.94296632946062
C           -0.55599178164817       -0.12217472589912        0.41952470742483
C           -1.36109399689384        0.61972401124686        1.28032235505135
C           -1.35792318507252        0.41655692373219        2.74503359529331
O           -2.04294061321820        1.03809244537481        3.51778313212897
O           -0.47651164695341       -0.54182656929315        3.10739864672949
C           -0.31131954446937       -0.95052885259639        4.41508055251381
C            0.95749722896625       -1.41940205412495        4.74564892226264
C            1.21044032840586       -1.89349258987357        6.01480722601383
C            0.20220334891467       -1.91929040191431        6.97877477052895
C            0.47079294651571       -2.42633964791874        8.32948287693669
C            1.67570557860719       -2.12945334039626        8.97157556795770
C            1.93420883580053       -2.60295679838737       10.23999760035223
C            0.98238937719809       -3.38836718090208       10.88124542502544
N            1.24850492637682       -3.88878082605363       12.20222814983190
O            2.31196577363171       -3.60083345726620       12.71176016961584
O            0.39288942273446       -4.56735207035461       12.73230243711605
C           -0.22318302472606       -3.69649158838866       10.26015900203154
C           -0.47294824162819       -3.21441356974932        8.99319197815434
C           -1.06413023654772       -1.45615181353454        6.62919431353776
C           -1.32742506139264       -0.97309669602484        5.36143366404855
C           -2.21431153470013        1.59117617458548        0.75541537063936
C           -2.25539122327990        1.81953461337006       -0.60149659632622
H            4.08268580980190        0.32485761630437       -8.87396070988673
H            4.65842572215392        1.62098518984835       -7.82547968849905
H            3.48716316349005        1.97033580930268       -9.09634684100209
H            2.96979283084548        0.20319387629032       -6.64740512999203
H            1.79882107198370        0.53596564104771       -7.91932111254850
H            1.94897876637580        3.00788251788921       -7.32911781939429
H            3.07633780616891        2.57442280205515       -6.02951939835281
H            0.17777893770792        2.21259550949433       -8.15013495320453
H           -2.18461208807349        2.32414515526872      -10.86818172113138
H           -0.78284684785957        1.49410852658614      -10.15196580274257
H           -1.05001625661953        3.23579443527209       -9.84415490866155
H           -3.81810475762198        1.38788424004863       -6.92073988803531
H           -3.03593709779310        1.10011935581345       -4.59099152696983
H            0.03127632783407       -0.47594271641184       -1.60468634575419
H            0.09980771742659       -0.87910439672691        0.81981187427053
H            1.73056513218000       -1.40538930950149        3.99334677764535
H            2.19254123251077       -2.27188623151338        6.25505380730933
H            2.40249750451624       -1.50428682473068        8.47623694023843
H            2.85848973310756       -2.37572952607481       10.74889244682420
H           -0.94117341192809       -4.31146402250522       10.78096254388034
H           -1.39874882651528       -3.46556913490361        8.49898551959255
H           -1.85299572483696       -1.44957872555970        7.36609400531329
H           -2.31130095826620       -0.60991324440017        5.11519506279517
H           -2.83442748922078        2.15727095370892        1.43352170859135
H           -2.90924059356939        2.56623855044625       -1.02411384463416
