40
 energy: -59.696950133489 gnorm: 0.000207252377 xtb: 6.7.1 (edcfbbe)
H           -2.02543581708934       -6.73962566390346       -0.17638967955840
C           -2.47105754973291       -5.83387052845489        0.20847741624100
C           -1.76043740273749       -4.65260924058519        0.22216867469397
H           -0.74402063923091       -4.63820881735800       -0.14225440595497
C           -2.32699669745885       -3.47987563643911        0.72460030001330
C           -1.56770682341261       -2.22453918803075        0.73516440474534
C           -0.74646258392709       -1.87612068081559       -0.33200563433598
H           -0.67822158539645       -2.52960610499652       -1.18934815329362
C           -0.03714387463428       -0.68893044974570       -0.33888529692803
H            0.57967138883827       -0.45356861201533       -1.19194045860237
C           -0.12922623077442        0.18253826121688        0.74169800747995
O            0.51602596150634        1.37241629669605        0.84623081219315
C            1.34432849805312        1.80027396426342       -0.21500689222796
H            2.17711583826271        1.09615122551032       -0.35424312796147
H            0.77018563533525        1.85330353153460       -1.15034657200792
C            1.87794809096385        3.18273815130043        0.14472782123964
H            1.02921640470699        3.85209100588485        0.29445838288214
H            2.41839128373192        3.11350092054245        1.09050462791035
C            2.79183412311507        3.73375668544199       -0.94520923657712
H            3.64748240304714        3.06540211449368       -1.07329001062767
H            2.24990480298189        3.76465217560369       -1.89367116655716
C            3.28734901445495        5.13757328615297       -0.60515791985749
H            2.43108075008598        5.80248667002535       -0.47277615343302
H            3.84374190266535        5.11432350435637        0.33422003775952
C            4.19922334980737        5.69966106988958       -1.70359492708365
H            4.57542114200302        6.68595272381069       -1.41771782132398
H            5.05397730150129        5.03589427937638       -1.86368559883775
C            3.48893954195428        5.83320999514619       -2.95026314994323
N            2.91289100729584        5.93539989412962       -3.93224782756601
C           -0.94362501384737       -0.16508401320268        1.82255399259238
H           -1.00016960808740        0.51455430336612        2.65813498151089
C           -1.65296524792340       -1.34376414442305        1.81507000496358
H           -2.26374298939375       -1.60058557587082        2.66774016119784
C           -3.63333479612021       -3.52388430982862        1.21503595294465
H           -4.09110781433146       -2.62016623348690        1.58886663836938
C           -4.35559983535605       -4.69800768895259        1.20377339068271
H           -5.36839290969713       -4.72448339137405        1.57861727081993
C           -3.77737492818184       -5.86403155466010        0.69935042766374
C           -4.51193499365148       -7.07010460233205        0.68489354909944
N           -5.10980109933229       -8.04881362226233        0.67173717766985
