54
 energy: -101.699925949211 gnorm: 0.000124942953 xtb: 6.7.1 (edcfbbe)
C            2.94030204427718       -4.21253066057786        0.63580218407251
C            2.49255250520163       -4.63680115681947        2.02868435140963
C            1.03750550580585       -5.09808469431020        2.02558454381359
O            0.25343268904188       -4.00079602208668        1.60062621210642
C           -1.07191121828325       -4.11514445796214        1.46134165180011
C           -1.79147813897945       -5.25698941185946        1.81060753125117
C           -3.17400539893029       -5.29300536386244        1.67806990537119
O           -3.94618612303761       -6.35928869258303        1.98511924740096
C           -3.33773061973466       -7.53828333639588        2.45844947404712
C           -3.85418180190285       -4.16734045502365        1.19883904030656
C           -3.15134973924679       -3.04357509390220        0.84592637685051
C           -1.75930479373618       -2.98944614495881        0.95419609600413
C           -1.00628063878715       -1.81136672830771        0.50697069521552
O            0.17963672791663       -1.75173896048854        0.31209191250792
O           -1.85326860192943       -0.75951710566457        0.28165663496533
C           -1.42352966960671        0.46686255476615       -0.15001391120670
C           -2.36388102640826        1.21458314874003       -0.86246868169774
C           -2.04354747885874        2.47209068950455       -1.31804556871219
C           -0.77622069107232        3.00762237153010       -1.07492982387940
C           -0.47826250936680        4.34567492871072       -1.61412333504336
O           -1.26418580501238        5.03528703046441       -2.20920366463748
O            0.81059197283396        4.70493566933071       -1.34724388040963
C            1.40965451429558        5.85412448379999       -1.76802816802890
C            2.68233693301610        6.07981951083916       -1.22864083366304
C            3.40126138036660        7.18999453346584       -1.59708897666665
C            2.88283013055938        8.10347167238940       -2.51524926637646
N            3.68807110762337        9.24532429353653       -2.88022245479664
O            4.65952859819441        9.46814649632577       -2.18835335332353
O            3.36037804173240        9.89641417263500       -3.84295003138728
C            1.61333041028345        7.87162106324137       -3.04392753948088
F            1.05773685368613        8.72103674868133       -3.90443838467731
C            0.87387995671867        6.75927942387378       -2.67650013417874
C            0.15131823805221        2.26357994468865       -0.34827372242503
C           -0.16747169199886        1.00420793368920        0.11901319584854
H            3.96548111513162       -3.85279277668683        0.66156200177729
H            2.29607451590541       -3.41510862282943        0.27545733769392
H            2.88453440205182       -5.04981341247815       -0.05679998513888
H            2.58294543073497       -3.79082838826034        2.71086654205559
H            3.11443924869206       -5.45223725116777        2.40309749398675
H            0.73828670170539       -5.41457930154016        3.03498739537330
H            0.91013298344374       -5.94254293885658        1.33422528886330
H           -1.26387551333749       -6.11621481942394        2.18903879039383
H           -4.15125858514212       -8.24325950602496        2.62055467703287
H           -2.81401542688057       -7.36834026826990        3.40427894105132
H           -2.64144058074415       -7.95353815073927        1.72332449025818
H           -4.92670274914427       -4.21416038597114        1.10921419565205
H           -3.67503536372041       -2.18266321453113        0.46354562503104
H           -3.33595681893833        0.78533886945967       -1.04743380309018
H           -2.75737242934264        3.05962693119914       -1.87463747571810
H            3.08204118311566        5.36714373275663       -0.52606836065227
H            4.38268604598993        7.38065867972436       -1.19016422283900
H           -0.10731841576150        6.62251992254818       -3.10087213892623
H            1.12732189272375        2.67440238507099       -0.14501342649738
H            0.55748070079748        0.43624013065838        0.67757931129832
