48
 energy: -98.766706141276 gnorm: 0.000278186325 xtb: 6.7.1 (edcfbbe)
C           -4.45098876265450       -2.70569300242074       -1.04714301184165
O           -3.08313365941006       -2.49212082517711       -1.31404695435187
C           -2.43196462840933       -3.33340750868312       -2.14003345971492
C           -3.04108952918468       -4.41284211566624       -2.76584128241955
C           -2.32878685630483       -5.26574393363411       -3.60489660768071
S           -3.25331106627377       -6.57970060266268       -4.31412561014333
C           -2.04272061838643       -7.48842933794320       -5.31476969770404
C           -0.97336641303808       -5.04842135732719       -3.83191434717203
C           -0.36267360034391       -3.98217044765272       -3.21400853123431
C           -1.05440521306216       -3.10993990398602       -2.37161913220401
C           -0.26359629797726       -2.02339650700261       -1.77599108647973
O            0.93119459497043       -1.91305873900534       -1.91320014942916
O           -1.02986515868996       -1.14902998325299       -1.07795632195299
C           -0.55375640537352       -0.10256410121730       -0.34805146452795
C            0.77077576183511        0.08537696697203        0.04402279925885
C            1.10232683156734        1.17202464345004        0.82591111058594
C            0.14557227463683        2.09694410964818        1.24764647278158
C            0.49466637204673        3.23999011297993        2.11479790746106
O           -0.27689285463636        3.94574996828663        2.69983876600766
O            1.85254634948934        3.40119593942230        2.15342796758449
C            2.48039234861375        4.32891051772510        2.93329631115571
C            3.76347518451240        4.69381075281204        2.51235473036451
C            4.50235507427307        5.58452264690637        3.25282208147372
C            3.99204904399626        6.12741837211302        4.43164340016059
N            4.81809328810620        7.04727966216402        5.18000619681674
O            5.78771557007339        7.49563262077116        4.60558001387351
O            4.50730815720566        7.30277049737201        6.31829551065708
C            2.71168923202894        5.75628767421300        4.84194327550414
F            2.16866518758001        6.25773505350810        5.94783976188403
C            1.95290781263806        4.86413950387576        4.10206169910954
C           -1.17717682327292        1.88608587682765        0.84132669646285
F           -2.14039697126853        2.74039380874474        1.19712744929949
C           -1.52847011933855        0.81045685047442        0.05510663859270
H           -4.73787065817335       -1.91549255475264       -0.35534069126536
H           -4.62177538058620       -3.67781023149857       -0.57537479487625
H           -5.05498989479773       -2.62819254258055       -1.95597313186455
H           -4.08837499249465       -4.62026771483976       -2.61673295136294
H           -2.59249843748875       -8.31282505532834       -5.75835982095057
H           -1.25068000479661       -7.87343692416148       -4.67955492665401
H           -1.64915207987627       -6.84543711212067       -6.09626640238741
H           -0.39882383947289       -5.69271557668473       -4.47534131022930
H            0.68820495473937       -3.79086897782283       -3.37044039043056
H            1.53234699165605       -0.61054351738671       -0.26532337871586
H            2.12717510699796        1.30936920741365        1.13123737046629
H            4.15505519364185        4.26494793504339        1.60444785310911
H            5.49229430039855        5.88294099056832        2.94262501055321
H            0.96262820304278        4.61469550485674        4.44625833261177
H           -2.55264756877586        0.66543935664057       -0.24731190021101
