57
 energy: -80.840897127987 gnorm: 0.000157943144 xtb: 6.7.1 (edcfbbe)
H           -0.19430949589052        4.06404873998436       -0.36476181581373
C            0.72636706349778        3.95260098224857        0.18385287187463
C            1.41693876842549        5.08004532787408        0.59852300358518
H            1.00738769188515        6.04903564652293        0.36225197332390
C            2.60809059391453        4.95833958777937        1.30471854067898
O            3.36425227854741        5.99496253794236        1.75091396950021
C            2.96186775290284        7.31608003995361        1.44943706058474
H            2.87785789234775        7.44780356398697        0.36156806211406
H            1.98397378143932        7.52920648502762        1.90414510848183
C            4.01811856784196        8.26211501105863        2.01001110345132
H            4.09062053201320        8.10562997683419        3.08757021734472
H            4.98320098856021        8.00343115127515        1.57109961524442
C            3.68673432403665        9.72214487629791        1.71544083714773
H            3.60608559867217        9.86373166752354        0.63530013696348
H            2.71776125230779        9.96949452926979        2.15501810492319
C            4.75092700336413       10.65995890681647        2.27156692968261
H            4.83232059444934       10.54724166196041        3.35014159316554
H            5.72034490416835       10.43973899460112        1.83068606343071
H            4.50061991457713       11.69496385912773        2.05193869982561
C            3.09336119746783        3.68123184390918        1.59879262677998
H            4.01417454921493        3.59705784532635        2.15341483657646
C            2.41237553934814        2.56106196671336        1.18141471771958
H            2.78580415110064        1.57320130015486        1.40135538214419
C            1.22632862497158        2.69252393412711        0.46421758113989
O            0.58554366038241        1.51150670980277        0.11749193047558
C           -0.07821412083237        1.37839448465266       -1.04856335060438
O           -0.17329729161251        2.24450776100830       -1.88392055398369
C           -0.65738292958455        0.02636469175687       -1.18807588737813
C           -0.54005168925829       -0.94399187349679       -0.19828859489026
H           -0.01972482672423       -0.71086476460630        0.71752379516577
C           -1.08161534469536       -2.20223382017769       -0.37613327592552
H           -0.97524038125927       -2.93436269871484        0.40884825640826
C           -1.75475642262890       -2.51376343078394       -1.55680453921012
O           -2.31278674156891       -3.71216772510675       -1.83947558988142
C           -2.19205867463390       -4.77141728621449       -0.90930064694993
H           -1.13211609251151       -4.97467600570914       -0.70339357844237
H           -2.68833918147759       -4.50614246838566        0.03450352766969
C           -2.85010434246102       -6.00329581885232       -1.52082696922551
H           -3.89702970022597       -5.77471189820724       -1.72628478491863
H           -2.36402201990899       -6.21904671020735       -2.47370524722107
C           -2.74992947159576       -7.21443079272855       -0.59819501567000
H           -1.69834870428254       -7.42321032251556       -0.38700209963889
H           -3.23874210752906       -6.98845337695896        0.35252835894408
C           -3.39513446330373       -8.45188054700427       -1.21717627344636
H           -4.44615154856087       -8.24315724511949       -1.42869907839132
H           -2.90542261938771       -8.67618057836542       -2.16738206658693
C           -3.29809300640368       -9.67000560080540       -0.30173357411397
H           -2.24720601128913       -9.87678619517642       -0.08680254992334
H           -3.79191994135987       -9.44848648106420        0.64711448101504
C           -3.93792280677520      -10.90169683934058       -0.93025721196536
H           -4.99059030174485      -10.72114424293031       -1.13660109897204
H           -3.44443502122748      -11.15145967571340       -1.86693900639639
H           -3.86063499924664      -11.75679017065932       -0.26296995713619
C           -1.88068940715666       -1.53438212967985       -2.54936890864970
H           -2.40787266848858       -1.79126988900167       -3.45441598984913
C           -1.33965951456352       -0.28526135790170       -2.36657816346856
H           -1.42727537723971        0.47482586188439       -3.12771355670615
