70
 energy: -143.045782442458 gnorm: 0.000124413041 xtb: 6.7.1 (edcfbbe)
C          -10.87322887258858       -0.48410935725045       -7.55855625036795
O          -10.81715907739502        0.29527632604310       -6.38648565344330
C           -9.64542652508571        0.41689809495626       -5.72451036427594
C           -9.68006016421640        1.19072659887872       -4.55896099030308
C           -8.53489194347989        1.35372462939717       -3.82487407249256
C           -7.32095291480085        0.77201164433467       -4.20699743163836
C           -6.17974842260493        1.00555848580003       -3.30946874063789
O           -6.26410144508687        1.60721894290638       -2.26585028525793
O           -5.02343646727842        0.48760313121784       -3.79017947514208
C           -3.84824472022074        0.44310912938763       -3.09687011837815
C           -3.71683684034534        0.56955447140574       -1.71604496076491
C           -2.47329211531892        0.42855003909364       -1.13490222868459
C           -1.33321366011175        0.15529717340380       -1.89010130433213
C           -0.01701985155109       -0.06922575749760       -1.24477476739227
O            0.92832106233939       -0.60673428974448       -1.75398831332505
O           -0.02633422928969        0.41448180708797        0.01945178565055
C            1.02558242410331        0.18331620195836        0.88647304369317
C            1.69958820656483       -1.02852615639210        0.95227179621831
C            2.68269633855575       -1.20757833606993        1.90602516427134
C            3.00001134524375       -0.19900894517091        2.81267689086872
C            4.01282596069711       -0.42703578730273        3.85261221918011
C            5.18404916387173       -1.12827036683985        3.56870920644548
C            6.11486977540991       -1.37949276711371        4.55681696351914
C            5.88778956447627       -0.92575712840989        5.85016369225573
C            6.87306940567580       -1.26403303681626        6.94188210135306
F            6.78810226544996       -0.37073303609560        7.97301429065357
F            6.55480223882474       -2.45761209057286        7.50228005696125
O            8.18318481603207       -1.40356781942738        6.55215787736519
C            8.84187123363422       -0.36749141463671        5.95246165096018
C            8.33312792676995        0.91719153254188        5.81673233306400
C            9.10490746057281        1.88512270039752        5.19565756518664
F            8.60483949226238        3.11836276411859        5.06528897316290
C           10.37523215998472        1.60562283404518        4.70908112062080
F           11.10780967660294        2.55241674561039        4.11123311446219
C           10.86636832003058        0.31160748523882        4.86307052722530
F           12.08630935834988        0.01185702655628        4.40683328003144
C           10.11413645875703       -0.67055425399536        5.47393584230297
C            4.72765815998844       -0.22245750174783        6.14874815019579
C            3.80345478756071        0.02726636181038        5.15379375037442
C            2.31485316856356        1.01231686853707        2.73046817415951
C            1.33995964682429        1.20664814380818        1.77392480759947
C           -1.48968547824881        0.04298188014949       -3.27422160380192
F           -0.43456861028061       -0.19494338943888       -4.06126890258327
C           -2.72150851867018        0.18645618706689       -3.87672352841746
C           -7.28137479401000       -0.00172789506603       -5.38472764155660
O           -6.10420491186828       -0.55681773182577       -5.73843714957170
C           -6.02294447510273       -1.34536523386075       -6.90239892338279
C           -8.44993522695027       -0.16833857895927       -6.12576922366325
H          -11.90855931689486       -0.43778322237075       -7.89174119200045
H          -10.60494633983874       -1.52658997372951       -7.36067666906777
H          -10.22450248778193       -0.08005729344252       -8.34191615040431
H          -10.61349072221845        1.63931248513325       -4.26310482508872
H           -8.53897644597588        1.94076529739075       -2.91951063937753
H           -4.57864140536905        0.77750417453839       -1.10462723236657
H           -2.37569475168096        0.51782182873251       -0.06463223857894
H            1.45723296592675       -1.82454754992297        0.26711833988710
H            3.18734110348476       -2.15978406604978        1.96797897687058
H            5.37122176472114       -1.47011921437374        2.56252980240341
H            7.01428948517235       -1.93274853543620        4.33115612760338
H            7.36161945812036        1.20010161755238        6.18665125455722
H           10.50985621835019       -1.66587149025470        5.58766047152042
H            4.55177093821708        0.12053859515389        7.15695318700583
H            2.89410467575404        0.55576362914418        5.39505285797407
H            2.56286292904829        1.81601170250162        3.40721378198026
H            0.80754573262416        2.14226989862669        1.70405372645088
H           -2.82136614433099        0.09208821575953       -4.94561422223856
H           -4.98548358856109       -1.67079019171791       -6.95906806304746
H           -6.26796293162654       -0.76846587579078       -7.79974797024344
H           -6.67121883000842       -2.22520566858336       -6.84159795320496
H           -8.42426345977413       -0.76200069431119       -7.02378381899181
