48
 energy: -68.898587051282 gnorm: 0.000127776210 xtb: 6.7.1 (edcfbbe)
H           -3.58446749812531       -7.92265229730880       -0.08775820821910
C           -4.00736804908789       -6.98783629661827        0.25044146235500
C           -3.23265752808210       -5.84941906694706        0.31528817636548
H           -2.18989752116886       -5.89836726956361        0.03888719896070
C           -3.77005810658093       -4.63935054842303        0.75795390921343
C           -2.94192664894444       -3.43006735991309        0.82066101875171
C           -2.01651662289662       -3.14566532115178       -0.17815390960911
H           -1.91801468050855       -3.81397913222977       -1.02111876128788
C           -1.23875194397413       -2.00321295443583       -0.13679209476128
H           -0.54176546536411       -1.81622812232616       -0.93853330086179
C           -1.36380503269781       -1.11338415184037        0.92596428522252
O           -0.65558404346451        0.03407811069569        1.07305466684787
C            0.28966907798090        0.38793395881894        0.08391894721373
H            1.06424968005345       -0.38780153918784        0.00420172486011
H           -0.20444908254853        0.49064401495318       -0.89265476815754
C            0.91938896101306        1.71556127024658        0.49066248342380
H            0.12675079846016        2.45769493206078        0.59867539162369
H            1.39527753780260        1.59335592911670        1.46483442710435
C            1.94280469121432        2.18890085109116       -0.53716356747120
H            2.72688460773536        1.43525061191237       -0.64157257010495
H            1.45596559968459        2.29539893940719       -1.50966083537691
C            2.57339309401178        3.52159965992541       -0.14084710947287
H            1.78828782723578        4.27237238283319       -0.02786384303105
H            3.06890458633662        3.41377751732031        0.82613430772755
C            3.58687607597673        4.00189808295736       -1.17687340000699
H            4.37183649532556        3.25055350116378       -1.28861657048044
H            3.09116866131362        4.10788077061455       -2.14505355039783
C            4.21628416546730        5.33543457673047       -0.78373303054752
H            3.43109822988992        6.08641229710823       -0.66730937218914
H            4.72201686184072        5.22992103979632        0.17789877379651
C            5.22548737077361        5.81745393381069       -1.82445810028410
H            6.00532534869258        5.06432667241663       -1.95374835586144
H            4.73181831148021        5.96686939407110       -2.78639180306511
C            5.87786459273995        7.13019408971386       -1.41732338449027
H            6.55080874006259        7.50429617394144       -2.19594151926590
H            5.13108046516220        7.89212824753303       -1.17039083310103
F            6.64602085682131        6.95705956440840       -0.28982103361811
C           -2.28540706977608       -1.39646511828509        1.93764407611154
H           -2.36887946099820       -0.70389247887901        2.76025101186904
C           -3.06276439415858       -2.53014326538004        1.88116652683576
H           -3.75646938463092       -2.73785692830171        2.68228779021698
C           -5.11333844627489       -4.60191315941590        1.13639223841432
H           -5.54725308454538       -3.66869900196638        1.46333218177249
C           -5.89956115262779       -5.73248992425830        1.07266548152815
H           -6.94024491271604       -5.69575735418158        1.36016962729326
C           -5.35020215761783       -6.93626608294715        0.62806208281960
C           -6.15016588535351       -8.09795262974250        0.55936439164619
N           -6.79967446492817       -9.04158651934599        0.50187773969080
