47
 energy: -108.207564126847 gnorm: 0.000126909187 xtb: 6.7.1 (edcfbbe)
C           -6.11620239094664        4.81991948058630       -5.17298450586127
O           -4.81422158046439        5.29225816834974       -4.89189827070552
C           -4.04550865688932        4.61617118866910       -4.02710006931620
C           -4.43394086483118        3.46208073805813       -3.34683285166387
C           -3.54433427869779        2.84465426627583       -2.48975100385156
F           -3.97630378542987        1.75367714496787       -1.84473215616741
C           -2.25637918014198        3.32609215301773       -2.25418007414213
C           -1.29089042386946        2.68029352023512       -1.33220927874432
O           -0.43778772073267        3.25250705624793       -0.71486834293265
O           -1.51864931513790        1.34561963083957       -1.28204192163359
C           -0.74341284648046        0.48096316212857       -0.55663025013625
C            0.60573620915152        0.67357908389020       -0.28552347625238
C            1.30424601402101       -0.30735058840254        0.39229971025715
C            0.68835692087996       -1.48591398823517        0.80195527164859
C            1.51099214597403       -2.55821188617030        1.42989562945650
O            1.35655725749102       -3.73370557002091        1.25701974540239
O            2.47438752977987       -2.00223745664519        2.19547329768537
C            3.44952958824616       -2.73152461584308        2.83800160327897
C            4.01426347912964       -2.10624718948925        3.95126135711626
C            5.03631395885912       -2.71940313318108        4.64071570137980
C            5.49422075648250       -3.96135938428379        4.21256227838821
N            6.56870178467732       -4.60508586839395        4.92715435920407
O            7.02859247447940       -4.02681456667845        5.88806572012178
O            6.94798136094318       -5.68184331507794        4.52108378622494
C            4.93686160444856       -4.58631915854267        3.10489462891666
C            3.91251261877599       -3.97253401516617        2.41043426678908
C           -0.67623280580062       -1.65899617142213        0.54126571363336
C           -1.41443877637441       -2.88744899303519        1.01969566249882
F           -1.10263192060329       -3.21429189589226        2.28188246322113
F           -2.74576801611293       -2.69778463264406        1.01223997812811
F           -1.19512088636672       -3.96162751631291        0.25500062707060
C           -1.38502434390219       -0.68147980628225       -0.13232265461195
C           -1.90596281169701        4.49616999832699       -2.94216340407015
F           -0.68101297784405        5.00144016398702       -2.78625503348206
C           -2.76153861832609        5.12947076645678       -3.81212012514601
H           -6.52807049773516        5.51716670476223       -5.89988401181509
H           -6.74181475739667        4.81866349806120       -4.27640252423197
H           -6.09011063024586        3.81653996514108       -5.60651043269466
H           -5.41257424536347        3.02679278441608       -3.46202850574865
H            1.10559532797007        1.57616521981582       -0.59669862182976
H            2.35418162151793       -0.16704311635135        0.59527201522731
H            3.63591844912238       -1.14305474347714        4.25381358901823
H            5.48844763501911       -2.25758982595573        5.50487755308359
H            5.31534986947833       -5.54862935833009        2.79587401724834
H            3.47604274639658       -4.45714818534638        1.55334265980136
H           -2.43771220111062       -0.79611598379160       -0.33879694480037
H           -2.44909482034597        6.01956627074472       -4.33214717497002
