42
 energy: -62.569326783559 gnorm: 0.000178928865 xtb: 6.7.1 (edcfbbe)
H           -2.26811213394081       -7.12995864594729       -0.13007204287605
C           -2.72613225402104       -6.22947864947868        0.25253108847398
C           -2.03519257304052       -5.03656394689233        0.25464568556589
H           -1.02153561079396       -5.00746508762091       -0.11654393519354
C           -2.61784080569607       -3.87023372838699        0.75370954158585
C           -1.87861257064895       -2.60289907888703        0.74879291724949
C           -1.07449262382892       -2.24982756204963       -0.32985982653149
H           -1.00786255953891       -2.90732126042633       -1.18432307896707
C           -0.38060703233054       -1.05394956494448       -0.35130926660985
H            0.22262797554005       -0.81546091960682       -1.21315044024490
C           -0.46926662522700       -0.17801350442432        0.72625863364104
O            0.16640583773255        1.01786258591931        0.81709416078284
C            0.99178651219819        1.43756827242590       -0.25005336478323
H            1.80949401957636        0.71910441144340       -0.40273681208939
H            0.40722693147938        1.50521494527964       -1.17835077113185
C            1.55937361014440        2.80666156635618        0.10892252625571
H            0.72908230380766        3.49473024855277        0.27539013678369
H            2.11237509450562        2.72019182823225        1.04549080013642
C            2.47101238695576        3.34170513288420       -0.99141874602256
H            3.29604241901265        2.64365797193799       -1.14972751493814
H            1.90993357279314        3.40783151766777       -1.92624448909274
C            3.03406771142099        4.71773782649709       -0.64314977070602
H            2.20951652274887        5.41612867935454       -0.48468353434472
H            3.59671274229955        4.65259369633838        0.29060288783505
C            3.94330110996877        5.24820200191615       -1.74804372686955
H            4.77566970173643        4.56008565289866       -1.90898863654237
H            3.38709711634062        5.32449409882205       -2.68456575137175
C            4.50175956537264        6.61919458762262       -1.39666279049637
H            3.70531856918970        7.36153483367506       -1.27903024829485
H            5.11452149872422        6.58510826393751       -0.48970991231640
F            5.31732055822216        7.07396065753993       -2.40537673025162
C           -1.26919601320992       -0.52877620618212        1.81689894905431
H           -1.32522488013113        0.15429311816976        2.64971452111736
C           -1.96441855442363       -1.71607851713405        1.82354803917108
H           -2.56327560436468       -1.97511513198843        2.68401327439312
C           -3.91942233986636       -3.93303722073223        1.25445412195664
H           -4.38912376078554       -3.03501168776074        1.62724498777262
C           -4.62231263854268       -5.11899773095197        1.25444764547915
H           -5.63193943108895       -5.16018263230845        1.63649138934862
C           -4.02863153789040       -6.27812309323529        0.75200896034695
C           -4.74360128891843       -7.49601513387575        0.74774211260619
N           -5.32386492148019       -8.48535259463810        0.74397901011915
