48
 energy: -102.988168563111 gnorm: 0.000312042537 xtb: 6.7.1 (edcfbbe)
C           -3.38631369210436        1.48028684628007       -3.61336200250688
O           -2.14903908761017        0.84880925986628       -3.37848334683999
C           -1.38420635063527        0.46608994005239       -4.42139834166474
C           -1.75310089927486        0.67673207490404       -5.74794705040415
C           -0.93813390280247        0.26253257415812       -6.79165883074754
S           -1.32817417088245        0.49167705575258       -8.48672111185291
C           -2.92826515847748        1.35158674333926       -8.47997499336162
C            0.27276698944685       -0.37960086098874       -6.52101923389805
C            0.64311021928351       -0.58968056784459       -5.21855904882689
C           -0.15868668976862       -0.17841240718195       -4.14642129785835
C            0.36570598311389       -0.46624963604037       -2.80598965129451
O            1.40450109953971       -1.04503832813802       -2.60240119369949
O           -0.44632679499993        0.00302392758135       -1.81889260490023
C           -0.22347686705010       -0.13060471107390       -0.48743377950943
C            0.81494775683344       -0.84431568976706        0.10381067351323
C            0.89937088583363       -0.88493628476601        1.48249620300896
F            1.89632370754543       -1.59919226562996        2.01759954519922
C           -0.01800637168627       -0.25176503620700        2.32277512462593
C            0.04577394368533       -0.32611050045723        3.80642013699141
O           -0.90773133693353       -0.34625322017217        4.53148044022440
O            1.33708551262064       -0.38075356969095        4.20411459759868
C            1.74471855323925       -0.48857505190112        5.50500283027111
C            0.97085526163852       -0.17296059231698        6.61995883645316
C            1.52414355088473       -0.29872234484813        7.87704478387508
C            2.83343214075862       -0.73578003957215        8.05378582230166
N            3.34568638661334       -0.85964930988131        9.40023595791737
O            2.72117016816549       -0.29490266784503       10.27231450182519
O            4.34299992554218       -1.51698745084213        9.57495258980774
C            3.59997521283837       -1.04097937297064        6.92640975901762
F            4.86836728704158       -1.42991540414270        7.03422630418727
C            3.06243334542405       -0.91461370657926        5.66120477888246
C           -1.05343418158405        0.44468997712966        1.68973686853508
F           -1.95267348147134        1.09710078667221        2.43053684511559
C           -1.16087507363968        0.51915197090971        0.31974035907894
H           -3.80632578288541        1.67190629874318       -2.62736234648595
H           -4.07005178757451        0.83487433926331       -4.17336612835917
H           -3.26144653914541        2.43140001890372       -4.14030776914357
H           -2.68559232620174        1.16904389537893       -5.96340743628160
H           -3.17756146618006        1.50439404468881       -9.52538406653460
H           -2.83396509273974        2.31218204365092       -7.98237281842464
H           -3.68522354888208        0.73018926292772       -8.01081772888112
H            0.89737387470672       -0.69911129863682       -7.33945026940181
H            1.57360114317323       -1.08221149309708       -4.98219786980834
H            1.55267544259027       -1.36108912146402       -0.48797395719158
H           -0.04825942782135        0.15678694503958        6.50756471009131
H            0.94619613306004       -0.05979020199367        8.75717056685469
H            3.65688151126724       -1.14730702445636        4.79251271831361
H           -1.96321600449843        1.07304015326976       -0.13816207580927
