54
 energy: -102.804513781480 gnorm: 0.000164624712 xtb: 6.7.1 (edcfbbe)
C           -5.44677269644437       -5.38710220623771        1.03140192719660
C           -6.31395467135491       -4.55876969865783        0.09126971810657
C           -5.79457293815912       -3.12985889738516       -0.04267938674204
C           -6.66122118094728       -2.28905896237609       -0.97704320143367
C           -6.13075914745022       -0.86729558827517       -1.11957075022722
O           -6.22693213491738       -0.21797123731696        0.13413688429224
C           -5.71429330602811        1.08547390391887        0.13796805034646
C           -4.20589358681521        1.15005251943623        0.09073855876036
C           -3.45311368908528        0.10256887987943        0.60892783363306
C           -2.07683301702825        0.16844027834013        0.57928694481179
F           -1.36165458642035       -0.85533076997416        1.07490915420773
C           -1.39254161605367        1.27003200240412        0.05371224099021
C            0.01212665943557        1.33187766771385        0.04102241554720
C            1.21868962533383        1.38292365813709        0.03563882407336
C            2.62444424118679        1.44341494041124        0.03753681473121
C            3.37339650538950        0.33541512137468        0.43833802657909
C            4.74885843974511        0.41517177994834        0.43244952773439
F            5.44805791322698       -0.65912690930844        0.83942386552798
C            5.44462076802852        1.56697270413504        0.05471738148634
C            6.91329251879298        1.63219461056531        0.06843208113775
C            7.66704473239560        0.58879313856730       -0.46600422831515
C            9.04395452959645        0.66164306724605       -0.44645600811303
F            9.75290718625870       -0.34390584140262       -0.97266169026367
C            9.72235870548826        1.75481176411168        0.10095802076608
C           11.13527802411085        1.81573869932655        0.11864381510861
N           12.27872435869225        1.86522698244875        0.13396346951883
C            8.93882319733468        2.78463124600422        0.63061251077726
F            9.54515300914695        3.84761725887175        1.17193979415713
C            7.56073479259382        2.73723900342517        0.61820571434391
C            4.65544632330863        2.65311517966572       -0.33385718941676
F            5.26310264105038        3.78463065568694       -0.73271321901527
C            3.27842967322364        2.61220206386932       -0.35671348231542
C           -2.18209051003583        2.30778460404490       -0.45292360660068
F           -1.57101734407617        3.38744160458388       -0.96954682959434
C           -3.56025760502283        2.25738339555805       -0.44680885779223
H           -5.82995346913277       -6.40147808099199        1.11254313144557
H           -5.43259969937750       -4.94528897077799        2.02530516617918
H           -4.42377578277136       -5.43526814122377        0.66443691002976
H           -7.33872850775977       -4.53587207251394        0.46809840452540
H           -6.33427056274503       -5.02987578058108       -0.89431295456491
H           -4.76995932588018       -3.15345892580975       -0.42285475603540
H           -5.78119469721141       -2.65664450309448        0.94046774336066
H           -7.67758822671993       -2.24097473618649       -0.58381353206529
H           -6.69619801154730       -2.74704085287417       -1.96730016422520
H           -6.72145457132654       -0.31250973181344       -1.86587215276388
H           -5.08474234308000       -0.88531155398220       -1.46052067918778
H           -6.05678170651407        1.52964766022883        1.08008114584549
H           -6.13564581840214        1.67349052369969       -0.69224355620629
H           -3.94377025505531       -0.76103992653684        1.02925794407698
H            2.88865384823646       -0.57522093083225        0.75215063685954
H            7.19696354250546       -0.27629046540091       -0.90526880471145
H            7.00698243985641        3.55756744514775        1.04568103191131
H            2.71964398702050        3.47737616548569       -0.67604243674388
H           -4.11910665458616        3.08379625931013       -0.85701820175761
