50
 energy: -96.824795598607 gnorm: 0.000089930563 xtb: 6.7.1 (edcfbbe)
C           -2.16914968972005       -5.85766029410949        6.59090272548819
O           -2.17864513979179       -4.45764821305685        6.42796913599132
C           -1.83999793440926       -3.94007467182157        5.22653865298173
C           -1.87389604480984       -2.54155771744602        5.12555765802017
C           -1.56272345231201       -1.94027594767266        3.93659013734616
C           -1.20987741265357       -2.67595268709744        2.79292147558302
C           -1.07992408387140       -1.91748177889702        1.53591784177904
O           -1.52042305906808       -2.23672921989494        0.46013320474884
O           -0.46558075714669       -0.72531545425815        1.76735098282382
C           -0.21642630121433        0.17585100209726        0.75951187836404
C            0.16540139810043       -0.19345160473963       -0.52570158579819
C            0.46110545025578        0.79296379201455       -1.44061886075149
C            0.39192652814284        2.14800477713500       -1.10646015941773
C            0.74536581287917        3.16548824143636       -2.10956275409132
O            0.79845648015679        4.35500440065664       -1.94021565060300
O            1.00524240455490        2.58556966387591       -3.32471661161508
C            1.44979803198088        3.29893371248765       -4.39942401821240
C            2.26382452483426        4.42326277704647       -4.30496824145066
C            2.70068183824060        5.02980705213077       -5.46601406933301
F            3.48581915936143        6.10697552554179       -5.36679978676950
C            2.36483894920954        4.55401616474032       -6.73631012380293
C            2.82947334016517        5.18774180642631       -7.91217384208778
N            3.20761201345698        5.69886326256304       -8.86394391145964
C            1.55143454380095        3.41713190013919       -6.78901741236036
F            1.20544818811239        2.91976077179671       -7.98125023385018
C            1.09466922888012        2.79244949427064       -5.64970108359674
C            0.00686080645146        2.52286270272758        0.19518068341573
C           -0.09365113229082        3.94753682798389        0.62469218357887
C           -0.28995680221652        1.51982376198764        1.10439618594914
C           -1.12042310698788       -4.07191633072397        2.90806550861804
O           -0.68157569156054       -4.95699489082987        1.98800290262859
C            0.00952324072507       -4.55383476434088        0.82894124398028
C           -1.45105370359523       -4.68000817279975        4.12552715213002
H           -2.48745658768713       -6.03618310254909        7.61654164921162
H           -1.16607240811605       -6.26970447631337        6.44541897472043
H           -2.86670042915757       -6.34465236051169        5.90329079158827
H           -2.15817587266159       -1.96616911232034        5.99078469994189
H           -1.61470165821606       -0.86624702893558        3.85382123968414
H            0.22681087257619       -1.23205814775327       -0.80510267872235
H            0.76195465482016        0.51132449572659       -2.43673543056135
H            2.55237177275811        4.83759746570753       -3.35350761291526
H            0.46915718881278        1.91800946325687       -5.72321912684836
H           -0.77653074838432        4.49501213375958       -0.02188953949270
H            0.87430197699072        4.43831382360003        0.54216390074367
H           -0.44121853719572        4.01408938404378        1.65214014940146
H           -0.58321042913610        1.77351745337756        2.11172563813236
H            0.51688422160046       -5.44900023251548        0.46912528775762
H            0.75020413064543       -3.78079040108585        1.05772358638104
H           -0.67185631347833       -4.18217483304488        0.05973621447386
H           -1.36993946190955       -5.75405041376151        4.15669104830232
