46
 energy: -106.490313816544 gnorm: 0.000658491853 xtb: 6.7.1 (edcfbbe)
C           -5.95310244533687        0.16629658877038       -6.13712852792160
O           -5.50673081610626       -1.08253657122928       -5.65284897862108
C           -4.47453865501910       -1.12171677115149       -4.79351015195750
C           -3.77886167628334       -0.01125391954396       -4.31692299120096
C           -2.72786649835913       -0.18043658187878       -3.43730713577426
C           -2.33087241719405       -1.44415835836514       -3.01382465473912
C           -1.14678464846211       -1.59248145376835       -2.13022805140254
O           -0.31861109616091       -2.45300584416412       -2.21671119545039
O           -1.10865664197049       -0.56925096165356       -1.23899876507521
C           -0.16164259567629       -0.48118144918568       -0.24883552368724
C            0.11169352620378        0.80658324427179        0.21500282758080
C            1.00794749159006        0.99547319678928        1.24169432214559
C            1.65703784889642       -0.08740317898205        1.84033675231569
C            2.60627227204759        0.09552194016732        2.96057930497504
O            3.06874784158062       -0.77277897967478        3.64283637652486
O            2.90341688535566        1.42088247117061        3.11137675556250
C            3.70723781297716        1.89430833465784        4.11180318560000
C            3.86962127451841        1.27926214183489        5.34839727358169
C            4.67147388851371        1.88862217390003        6.29446924483414
F            4.81935800405807        1.29581246607121        7.48172731622002
C            5.32118791750204        3.10381969628107        6.06181576893053
C            6.13194033587120        3.71318660324228        7.04808809672159
N            6.78451500080928        4.20955648127754        7.84639205311448
C            5.12745329973920        3.69263362080045        4.80794692698137
F            5.72364562670454        4.85806028845284        4.53630145829748
C            4.33796550244764        3.10890597469104        3.84183138251357
C            1.36089204165199       -1.36643750454942        1.36058380218056
F            1.94844781626251       -2.43628572155707        1.89251921871200
C            0.46328552125662       -1.57764681420970        0.32783001511498
C           -3.04240137781825       -2.55751176457063       -3.48126044308122
C           -2.70302059440514       -3.94918038918664       -3.00424278403713
F           -2.48339122505614       -3.99726331056206       -1.68036671922472
F           -3.70734570441174       -4.81274482356640       -3.23518277381086
F           -1.62931209881012       -4.46525017423610       -3.60976526059994
C           -4.09831940629388       -2.39687727841618       -4.35361390318622
H           -6.77824206088135       -0.06026689624679       -6.80968874399271
H           -5.16537312990912        0.68422154798150       -6.69171332833704
H           -6.31257075770728        0.80417541098009       -5.32451855542404
H           -4.04717703052405        0.98594700281588       -4.62629988682170
H           -2.18922036171769        0.68259463510311       -3.07941076547497
H           -0.39370658552003        1.64275768172910       -0.24061828566052
H            1.21431308374101        1.99130580537234        1.59875170111702
H            3.39988917493347        0.33882405944076        5.58401560848132
H            4.20844673990841        3.58711019694019        2.88491147693845
H            0.27267548676634       -2.58445204135251       -0.00636419228813
H           -4.65971656972275       -3.24574077469992       -4.70983925067653
