47
 energy: -102.104055686667 gnorm: 0.000195725181 xtb: 6.7.1 (edcfbbe)
C           -1.70534756982618        5.47435221270916        6.90092727858813
O           -1.30239291567142        5.43859714192954        5.54959169256246
C           -1.29470031746528        4.25389039602659        4.90178957994970
C           -1.66432673465860        3.03045597230557        5.46030870142300
C           -1.60336855702222        1.89973249216957        4.67954690802774
C           -1.18552602841085        1.92848817210400        3.34789657486220
C           -1.16624143982382        0.63598723702949        2.65311775828207
O           -1.47976220324939       -0.40836724670522        3.16946617107787
O           -0.75293187095939        0.74846078599886        1.36106055516016
C           -0.60050649264493       -0.28095342621048        0.49100835895088
C           -0.82890378627471       -1.62686598785296        0.76053548705715
C           -0.61643186871636       -2.55434787140170       -0.24235430620984
F           -0.81601757737777       -3.84057165928268        0.04833004989222
C           -0.16516866101515       -2.21043159767750       -1.51869140035181
C            0.03884360072600       -3.25438848064398       -2.55706950970246
O           -0.61966174182486       -4.24703884170651       -2.67538634797201
O            1.07586087642474       -2.90319160364967       -3.35411042031119
C            1.51533793409197       -3.64772851873638       -4.41333099067114
C            1.31217689075075       -5.01539862140180       -4.55859089651131
C            1.85151698967287       -5.65146741272706       -5.66063488220963
F            1.65792395735334       -6.96626888946757       -5.79612927535756
C            2.59634064145035       -4.97616226954953       -6.63103459063659
C            3.14299154331468       -5.65000787650694       -7.74817883974440
N            3.58792998930158       -6.19419459327570       -8.65142328446722
C            2.77967167537596       -3.60142490357585       -6.44457286258462
F            3.48637867733364       -2.91208424962521       -7.34621307842998
C            2.25394421357237       -2.93681713779818       -5.35928149348388
C            0.05147929888913       -0.84856683677174       -1.74883715236397
F            0.45130945427810       -0.43503931099310       -2.95915282196063
C           -0.16262989784662        0.10381407117547       -0.77957048459396
C           -0.81258972677370        3.16958775695909        2.77957731770187
O           -0.41112803687956        3.18709096203814        1.49346706010908
C           -0.03424485717394        4.41268494923758        0.90678741420307
C           -0.87606064719051        4.30631775143434        3.57167482895117
H           -1.62419856532930        6.51700907992124        7.20302496974804
H           -1.05127370722574        4.86295797559644        7.52921889002563
H           -2.74096888592461        5.14255929116550        7.01820470323511
H           -1.99322450101814        2.95539829676754        6.48314479438034
H           -1.88278085184079        0.94095309195909        5.08897044889869
H           -1.16606395735020       -1.95975368230382        1.72847613277831
H            0.74200258861666       -5.58691951574529       -3.84490471741182
H            2.40573585635868       -1.87704297232957       -5.23644977841109
H            0.00492056424610        1.14723209250028       -0.98827567872358
H            0.24419696249068        4.17194565156792       -0.11784078719139
H            0.82442817693317        4.85628968688702        1.41907754806667
H           -0.86377339931282        5.12560570918515        0.89709236879502
H           -0.60276509239323        5.27563272927717        3.18969800654370
