41
 energy: -51.044916139962 gnorm: 0.000076552544 xtb: 6.7.1 (edcfbbe)
H            1.24342705490282        5.74459474286744       -0.29869871400396
C            0.67115511536918        4.82975642583530       -0.25023037160982
C           -0.71409321595143        4.87340398832501       -0.40335610630594
C           -1.36666403897605        6.10721146574907       -0.62128606760640
N           -1.89760531957274        7.10815868038582       -0.79843724030554
C           -1.45416673531220        3.69223206241555       -0.34075004550853
H           -2.52728401885858        3.72837523465228       -0.45958331163107
C           -0.81090180331519        2.49088918162654       -0.12841237116216
H           -1.39784132722958        1.58590677132798       -0.08260522571419
C            0.57208163958907        2.43226008051948        0.02587930812332
C            1.27326049369614        1.12110200610347        0.25514879479787
H            2.34847783197395        1.31400566869901        0.34728385582596
C            1.06537787827094        0.16725814225831       -0.92708347376464
H            0.00066941591560       -0.01149791230920       -1.07806394139205
H            1.45091020723928        0.63227192734732       -1.83787688691925
C            1.78591553667593       -1.15536077002969       -0.68481766937854
H            1.63046436885563       -1.81869415267175       -1.53646390316548
H            2.85978588083303       -0.96352307921527       -0.61303232462800
C            1.33006672240423       -1.83967851683001        0.60824355023449
H            1.98273771275295       -2.70489037320893        0.77918620401997
C           -0.11045218571328       -2.36190527237951        0.54802741965817
H           -0.39036521656022       -2.70501532886374        1.54773188229060
H           -0.78815968669132       -1.55497262743028        0.27563053521624
C           -0.29210260222762       -3.52211819991948       -0.42901625845481
H           -0.13423295230279       -3.17618628274059       -1.45230724192266
H            0.46165573552341       -4.28481433840294       -0.21669981359602
C           -1.67749434211050       -4.16376417839700       -0.33792826461899
H           -1.68798873583423       -5.05697628664743       -0.96718177914329
H           -1.86179009454275       -4.48328160991702        0.69043017382358
C           -2.79938422320945       -3.23432121128700       -0.78748327593528
H           -2.89975874974619       -2.38690555556186       -0.11416338998265
H           -2.60408866021716       -2.85904144943812       -1.79008579941029
H           -3.74786990405592       -3.76649345117824       -0.80077666074329
C            1.52626437230920       -0.86656877731085        1.77681772849173
H            1.17253074804677       -1.32458768494407        2.70305218115535
H            2.59490173178550       -0.66865656779473        1.89387227040671
C            0.80109000380786        0.45735794209776        1.55409417004643
H            0.99768880306964        1.12824390434754        2.39412530836316
H           -0.27498683063664        0.28744917279907        1.51609858492463
C            1.29742728123869        3.61786811092111       -0.03848036799141
H            2.37136210882695        3.59089811818803        0.07917853751551
