46
 energy: -110.716742503005 gnorm: 0.000158464288 xtb: 6.7.1 (edcfbbe)
C           -5.94405576379733       -0.38726875399646        6.48759009330901
O           -5.33055708175580        0.80139200637635        6.03190287516451
C           -4.30067245184680        0.72646259386849        5.17592071826075
C           -3.74258307315336        1.94352884793020        4.76523875399027
C           -2.69644564554299        1.95957100034940        3.87718265484760
C           -2.16699635117956        0.77633249253454        3.35236187731457
C           -1.07831633560717        0.93441009360517        2.35612355543438
O           -0.33022848554836        1.87421651385278        2.33598632296243
O           -1.10145736798256       -0.06856375968843        1.45225715628385
C           -0.22825621790062       -0.21979023362572        0.41140058046905
C           -0.52014051445775       -1.29041377963424       -0.43333132274529
C            0.29485900637261       -1.53949057414008       -1.51650664611309
F           -0.01827899561889       -2.55093937111149       -2.32593801386578
C            1.40401154929093       -0.74185308175486       -1.81569666895357
C            2.26119856105021       -1.04568184128080       -2.99650204380158
O            2.51367837106707       -2.14639070439211       -3.39294255270973
O            2.70258346190013        0.11115579110223       -3.53633967800720
C            3.53052789672976        0.20389395258715       -4.62139648638872
C            4.07751569983794        1.47233489025645       -4.81884494216217
C            4.90254021309571        1.69291108237239       -5.89884720386943
F            5.42015668687412        2.91169826067704       -6.08026772335474
C            5.21307160479571        0.67901765581929       -6.81216950422072
C            6.05814181702025        0.91590119033655       -7.92166426551714
N            6.74028940714256        1.10883599484700       -8.82016023736887
C            4.64655481244087       -0.57651289117542       -6.57809696882099
F            4.91403750499959       -1.57281235078180       -7.42657638220704
C            3.81276604555925       -0.83123694263572       -5.50534707048916
C            1.66200704747695        0.31351133023917       -0.94108551248854
F            2.72871818654665        1.09322064106925       -1.14769843395460
C            0.87678316606876        0.58561016740243        0.16400141644375
C           -2.69855415836267       -0.43899531598241        3.79186346551477
C           -2.13031186216822       -1.76938665570070        3.36133872972897
F           -0.78972933577557       -1.79057138849795        3.34594639851778
F           -2.49785588383946       -2.76306244704854        4.18738515702438
F           -2.54384027075274       -2.14923705077548        2.13961050455919
C           -3.75481763695453       -0.46260521588191        4.69092467008075
H           -6.74868903789937       -0.06477789010104        7.14551148376078
H           -5.24196103522659       -1.00799042690876        7.05086813442483
H           -6.36269734599419       -0.96369658875534        5.65821152739713
H           -4.15519649811903        2.85689995230485        5.16189053541592
H           -2.26156912038168        2.89324478841956        3.55597782718409
H           -1.37393530267449       -1.91684550055207       -0.23310034161554
H            3.85503237731882        2.26716951472785       -4.12607995465306
H            3.40748770328564       -1.82113884832405       -5.37445518803062
H            1.13363570250630        1.41296674626524        0.80485582681705
H           -4.13845104869368       -1.41503389428400        5.01868687648730
