44
 energy: -61.669819971144 gnorm: 0.000072140244 xtb: 6.7.1 (edcfbbe)
H            0.29918695013561       -7.00180586413258        0.83027866432047
C           -0.22613904931808       -6.06235070316012        0.92184626804374
C            0.46514421313268       -4.86943569838568        0.93358179486382
H            1.54287742252747       -4.87688616108088        0.86500340701122
C           -0.20691653023374       -3.65290892529513        1.05959819000019
C            0.53606068695317       -2.38652727564384        1.07620540580355
C            1.61819067685160       -2.18236647376409        0.22204000299291
H            1.90017430091970       -2.95639879280519       -0.47695733372402
C            2.31445778374030       -0.99061742800406        0.24104234280442
H            3.14941372396320       -0.84976884343652       -0.43064601198965
C            1.96068341314080        0.03124541381381        1.11505568347839
C            2.71046710649544        1.33124185358801        1.10529546001299
H            2.49078958642492        1.89256322925983        2.01545158376391
H            3.78423966735716        1.13056159123552        1.07964722899919
C            2.34059477056269        2.18466039794498       -0.11504017068890
H            2.96913311282912        3.07794627534452       -0.12606308238967
H            2.54835134884031        1.61894192357168       -1.02575211782610
C            0.87214893396285        2.60027194280381       -0.10648259963208
H            0.24472271019198        1.70612505221450       -0.09376623182322
H            0.66141708848565        3.16689887853517        0.80366692913697
C            0.51631995130962        3.45008617129901       -1.32369743795031
H            1.13781718066510        4.34841671228603       -1.33281719890290
H            0.73720691917240        2.88663511645307       -2.23298866002165
C           -0.95597647908765        3.85477648820934       -1.32779727360360
H           -1.57682773164392        2.95577333700312       -1.31942452965002
H           -1.17906719845781        4.41877792812835       -0.41905361587053
C           -1.30603303381832        4.70134656110944       -2.54819460808837
H           -0.70047901179714        5.60990350919228       -2.55824181331018
H           -1.08891819611973        4.14501098602075       -3.46232770390256
C           -2.77654660262477        5.09075665351915       -2.54819544085599
H           -3.42656836850935        4.21036732750289       -2.59067623201399
H           -3.03291351691374        5.69927440603255       -1.67446781309350
F           -3.07085184430777        5.85030740719950       -3.65577079628257
C            0.88435870281670       -0.17442078925398        1.96871330649068
H            0.59674282992597        0.60468765125855        2.66031814586593
C            0.17897285513848       -1.36220989098636        1.94971988377639
H           -0.64179223275159       -1.50780401766334        2.63703709279862
C           -1.59794432077028       -3.66279964556715        1.17155277340894
H           -2.13173568767174       -2.72732840339321        1.25118822033209
C           -2.30114083225646       -4.84866528163181        1.15711331988418
H           -3.37831762195065       -4.85076543498181        1.23874478556356
C           -1.61743286553522       -6.05911942324394        1.03305535706773
C           -2.33186742068774       -7.27759255200510        1.02070570665312
N           -2.91198339110157       -8.26682520908408        1.01147911854401
