37
 energy: -74.624961963475 gnorm: 0.000227063306 xtb: 6.7.1 (edcfbbe)
O           -1.17430675691825       -2.31542139081410       -1.60158466990816
C           -1.09571930996536       -1.55115895779729       -0.67621565967782
O           -1.99387693482112       -1.50165774761917        0.34368159488185
C           -3.14099875538618       -2.25433718859638        0.35646222776792
C           -3.85638220731304       -2.59352752243272       -0.78922075904830
C           -5.03362523164626       -3.30410042674537       -0.66721600340704
C           -5.49442827682312       -3.66768647398603        0.59186760494089
N           -6.72694886692103       -4.40288804224531        0.71318209534848
O           -7.32131727012970       -4.67829544215158       -0.30684432413408
O           -7.09703065430567       -4.69927102963790        1.82944277092643
C           -4.78616578429539       -3.32628116117729        1.73968083905900
C           -3.61045628219718       -2.61990796039199        1.61946345233822
C           -0.01174349412370       -0.56772453865580       -0.48494212711071
C            0.00845798878743        0.32540358591600        0.58711931277322
C            1.03461962862791        1.23549416400232        0.70137786643710
C            2.05579702910256        1.27059502681204       -0.25110228516283
O            3.01342518840061        2.22608245001969       -0.01307243648289
C            4.03138988889569        2.54559443535596       -0.84875511697131
O            4.25285220400964        2.04207891883254       -1.92063663396359
C            4.82990990608645        3.61061374095864       -0.26006066579288
C            5.93704242096999        4.20856327144508       -0.80856152863062
C            6.47263269980818        5.20835710295532        0.01822432886189
C            5.76971573027220        5.35631740221994        1.17724359049370
S            4.44150383196841        4.28338596798266        1.28699152940011
C            2.04817911880322        0.37896724123049       -1.31858041546954
C            1.01470548728524       -0.53063395584322       -1.42647269860319
H           -3.49383996215209       -2.31002657170154       -1.76318858928036
H           -5.60770860499804       -3.57956372720523       -1.53857719593369
H           -5.16862157389273       -3.62186456272443        2.70449071498375
H           -3.03840905892051       -2.33916191384619        2.48934669290932
H           -0.78082415886212        0.30343067359718        1.32141679627991
H            1.07141848603669        1.93690552475658        1.52005775797737
H            6.33036925287241        3.92467577984456       -1.76741975716395
H            7.33899576052225        5.79332929933409       -0.23162375580829
H            5.96059945274710        6.04260874008440        1.97874595536973
H            2.83303490215127        0.40013291877262       -2.05585743321863
H            0.98774420632764       -1.22901763055067       -2.24886307498187
