50
 energy: -74.583955784485 gnorm: 0.000176571350 xtb: 6.7.1 (edcfbbe)
H           -2.55392104668435       -8.81366452886025       -1.24966443934807
C           -2.90104644650316       -8.03022103809709       -0.59185185918831
C           -2.25745853601374       -6.81170605314523       -0.55001597086376
H           -1.38939762806600       -6.64522986573397       -1.17056095912749
C           -2.69653586642149       -5.79831238676360        0.30339633370889
C           -2.00777403100455       -4.50288873135854        0.34186312950120
C           -1.56052426623730       -3.89852279567423       -0.83169990674192
H           -1.73663218359818       -4.38256667445301       -1.78151623900459
C           -0.92161231101324       -2.67633160564237       -0.79702026124869
H           -0.57502909488467       -2.22943934415954       -1.71733356202497
C           -0.69447838345880       -2.02124458136108        0.41231196140827
C           -0.01029089879474       -0.72309108812825        0.44895104328134
C           -0.26807144565846        0.24825813056365       -0.51205165039949
H           -0.99678044336751        0.05346531838435       -1.28533042016401
C            0.36631049632680        1.47721526549011       -0.48499688915929
H            0.12864566043254        2.20480222048204       -1.24534178800331
C            1.29153241661087        1.75989583312521        0.51402449632141
O            1.97790293887210        2.92719355279912        0.64000947381478
C            1.75963210682361        3.95398621470466       -0.30319986211636
H            2.01084067722549        3.60237286209534       -1.31424212862683
H            0.70443325989060        4.26291260923626       -0.29274254321575
C            2.65280998526744        5.12988569516010        0.07860914036369
H            2.39852525943583        5.44482519626769        1.09194472397034
H            3.68971596609526        4.79011493860233        0.08708048721825
C            2.49158227217978        6.29796570262853       -0.88937772653151
H            2.73997742211174        5.96657064059748       -1.90096187344955
H            1.44795802646946        6.62303610613538       -0.89353143330375
C            3.38872176213220        7.47114453449441       -0.50356440429493
H            3.14416402785124        7.80294048697084        0.50772729241917
H            4.43263895725086        7.15042153014492       -0.50443219122096
C            3.21838847779038        8.64435970332772       -1.47659286158394
H            3.47334327115949        8.33375278045972       -2.49413568380928
H            2.18168908619798        8.99377609234013       -1.47237659628260
C            4.07138973249217        9.74537488424163       -1.10977829352057
N            4.75444312909126       10.60938187177436       -0.80466797618135
C            1.56011699736093        0.78845277171094        1.48076054489920
H            2.28374666658107        1.01734404630444        2.24718900834548
C            0.91673151467640       -0.42763342616262        1.44957131417297
H            1.15128552248097       -1.17133893317040        2.19654166165930
C           -1.13518397093485       -2.63081289694725        1.58598423809465
H           -0.98178765795167       -2.13430189839511        2.53288366154639
C           -1.78661368562341       -3.84645657294782        1.55133781101079
H           -2.10964314032091       -4.30593705793191        2.47435805227245
C           -3.80425225936631       -6.03882324775816        1.11765961387562
H           -4.16501966779367       -5.25666952808595        1.76913316658998
C           -4.45945709021150       -7.25137221903101        1.08141695759190
H           -5.32071433310946       -7.43042310838770        1.70844544129619
C           -4.01022446639699       -8.25743674670894        0.22449255367471
C           -4.67650790639967       -9.50219356117981        0.18285787000534
N           -5.21756887299156      -10.51284109795714        0.14842754237740
