49
 energy: -91.163204614847 gnorm: 0.000132757079 xtb: 6.7.1 (edcfbbe)
H           -2.98425001266385       -7.69167820502001        0.52875597848986
C           -3.40897245325854       -6.75961567361129        0.87209221249715
C           -2.63572780289156       -5.62065423702572        0.94599916350172
H           -1.59233693145440       -5.66624478613755        0.67144149197354
C           -3.17614594783711       -4.41436416947222        1.39476753371602
C           -2.35194949385976       -3.20238584415068        1.46325564923847
C           -1.43236044587166       -2.90746431390209        0.46234096945889
H           -1.33133225973075       -3.57199637827855       -0.38318377935313
C           -0.66401639132023       -1.75842775293958        0.50470823047355
H            0.02898549218838       -1.56380912703851       -0.29865481551375
C           -0.79429173196544       -0.87348873247731        1.57026998799555
O           -0.09860142986626        0.28393563591904        1.71637338150755
C            0.81875784087711        0.66185331303077        0.71169470349833
H            1.61808961798189       -0.08735200928151        0.62337775727848
H            0.30745011186358        0.74360946502645       -0.25800809160255
C            1.40833795866505        2.01246486953880        1.10421375061108
H            0.59256415857984        2.72844017351920        1.21648868076895
H            1.89812307581006        1.91144611592565        2.07375651092933
C            2.40346589009270        2.51078689444878        0.06080054510529
H            3.22305147192597        1.79464956615194       -0.02997200266642
H            1.90367201633527        2.56769823162808       -0.90951981362921
C            2.96510321685358        3.88072559053864        0.43172468232779
H            2.15771688916048        4.61412538780841        0.46196821344856
H            3.40823976883409        3.83123875755527        1.42722949438976
C            4.04816987832995        4.35430435542882       -0.54998600610254
H            4.44542034348101        5.30837051103149       -0.20039255567770
H            4.85644229078791        3.62346546479013       -0.57729382522548
C            3.49287466650470        4.53450124026887       -1.93107006378772
C            2.76513194957399        5.67177996670785       -2.26868070401612
F            2.59803950329639        6.63150526356322       -1.35162208513552
C            2.21062913581127        5.84756165972670       -3.53157272177598
F            1.52201900027514        6.95351648807976       -3.81918891721818
C            2.37630458978615        4.85996843261522       -4.49807639392353
F            1.84696753785876        5.01263563428148       -5.71182828502465
C            3.09878564870978        3.71224992589520       -4.18802806243449
F            3.26264794156923        2.75775719598501       -5.10645814211756
C            3.64362895677032        3.56461232129118       -2.91670707536803
F            4.33637016885732        2.45278238322716       -2.64152305357106
C           -1.70633716583646       -1.16893928854251        2.58647256890140
H           -1.79166416484455       -0.48020542245939        3.41208867794232
C           -2.47420590645812       -2.30917311192974        2.52911821338686
H           -3.16244262538231       -2.52621580161158        3.33241009245479
C           -4.52005738708640       -4.38086295233177        1.77088878269827
H           -4.95570981786330       -3.45020861830581        2.10277391732905
C           -5.30483983187251       -5.51192322516409        1.69781336339174
H           -6.34628292451877       -5.47822862544424        1.98282793893170
C           -4.75283666790851       -6.71187278436411        1.24640794804952
C           -5.55178602557284       -7.87375691194523        1.16713974674522
N           -6.20085170271866       -8.81712687255142        1.10254620710334
