41
 energy: -54.281584182554 gnorm: 0.000306589667 xtb: 6.7.1 (edcfbbe)
H           -1.01766776430017       -7.10206154174614        0.46858391689472
C           -1.51118257817714       -6.14985581670694        0.59802638703521
C           -0.78371856467928       -4.97886574909432        0.61927262693192
H            0.29098434357837       -5.01665433677261        0.51985681786791
C           -1.41462771562719       -3.74615696665274        0.79276820432028
C           -0.63479706985996       -2.50233122648931        0.81040177936885
C            0.42330819894282       -2.31346431454593       -0.07627365480049
H            0.66066046680384       -3.08306329805567       -0.79642611057325
C            1.14987118916887       -1.13964979768068       -0.06443597456649
H            1.96285958704277       -1.00765284732472       -0.76427245469556
C            0.85263493025708       -0.12377397831768        0.83633768147459
C            1.61610361290224        1.16657983554572        0.80865623345209
H            1.60387428721286        1.63164645167236        1.79641311917631
H            2.65580585156215        0.97765955519846        0.53261527253253
C            0.99590022620404        2.13045319389063       -0.21056729637028
H            0.97602057636671        1.64833122587820       -1.19082764962118
H           -0.03816940695435        2.33661667355253        0.07542197046051
C            1.77246437964757        3.44066861923907       -0.30382073026936
H            1.78502357824711        3.92593315307364        0.67515920418255
H            2.80839204226044        3.22746081184789       -0.57889513093879
C            1.16480432319921        4.39188792027852       -1.33169342256654
H            1.14070565418811        3.90064899031778       -2.30745998859747
H            0.13305604914068        4.61637808995368       -1.05075059386198
C            1.95134933568010        5.69552649122600       -1.44500614874043
H            1.98121342958912        6.18476815240309       -0.46866907223239
H            2.98093619369820        5.47090567360090       -1.73325031304024
C            1.33494923093361        6.64255921263130       -2.46712847002498
H            1.31067803302376        6.17841525304844       -3.45078675051026
H            0.31565073802639        6.89746802213644       -2.18493914891459
H            1.91219732586999        7.56166296616605       -2.53554427880255
C           -0.19969442712698       -0.31421360739555        1.72318139143675
H           -0.44253205198890        0.46199011145660        2.43498484984480
C           -0.93558227080649       -1.48299191278192        1.71101795655402
H           -1.73646821139030       -1.61878626349281        2.42337116940531
C           -2.80160422776385       -3.71741059976303        0.94477629915895
H           -3.30387499590105       -2.76854382328290        1.06168079216453
C           -3.54086397667719       -4.88098858313431        0.92142527422893
H           -4.61500668046575       -4.85280173422172        1.03305940124503
C           -2.89831208299246       -6.10779944981684        0.74780374773429
C           -3.64915980455302       -7.30384882647603        0.72383592212391
N           -4.25616175428578       -8.27665572936526        0.70209717153317
