42
 energy: -58.336996129891 gnorm: 0.000128060188 xtb: 6.7.1 (edcfbbe)
H           -5.89164554316085       -6.62127094446286        1.39116345893005
O           -5.05089437076251       -6.32066736683885        1.75019503976691
C           -4.60991842741032       -5.19471471506453        1.02180026121519
H           -4.48071204265635       -5.45048013968677       -0.04052581205773
H           -5.34665243536979       -4.38024779106912        1.08988644540851
C           -3.27891673204892       -4.73543819430819        1.60707570200002
H           -3.42865269255043       -4.51171684991688        2.66447535882114
H           -2.57072074958401       -5.56285430423005        1.54161488221811
C           -2.72610219670905       -3.51116746376731        0.88481883872780
H           -2.59290163200975       -3.74289816734070       -0.17464643380915
H           -3.44701058014908       -2.69293017751130        0.95481782471139
C           -1.39269313589909       -3.06111669271021        1.47675735861828
H           -1.52573884889027       -2.84955285965703        2.54016379813173
H           -0.66723346291049       -3.87307143354325        1.39054026078996
C           -0.84751376433457       -1.81741879263272        0.78025952796354
H           -0.69774927014551       -2.02614774974356       -0.28152835519221
H           -1.57657498709152       -1.00738945766315        0.85679718374108
C            0.47992822531624       -1.35680090200925        1.39498596012895
H            0.33194779386044       -1.17365485878702        2.46147546964945
H            1.22075973334043       -2.15109043733317        1.28477689825694
C            0.96486857033538       -0.10462530815308        0.72699430534821
C            0.51084522616535        1.14029740345872        1.14652800653954
H           -0.17541389149976        1.20211110028813        1.97920267122258
C            0.92757632863501        2.29696995368593        0.51863826203793
H            0.55047660959493        3.25302156324924        0.85182514127844
C            1.80777026589639        2.24154800416197       -0.56015089164655
C            2.25511485464903        3.47036199511829       -1.22769335411125
C            2.56759095565206        4.60906783029257       -0.48374490029114
H            2.49595422293101        4.57652439359218        0.59331847189381
C            2.99080099258556        5.76578939414853       -1.10325497412015
H            3.23709424532661        6.64265306612930       -0.52233850091751
C            3.10651993105927        5.80567070518889       -2.49362288227203
C            3.53768687175111        6.98792818641831       -3.13496634750610
N            3.88720841722295        7.94749790724787       -3.65687529340683
C            2.79495280470241        4.67392988482411       -3.24882433156024
H            2.88204583666142        4.71076800950605       -4.32495038242430
C            2.37653429218081        3.52209528210923       -2.61701268272314
H            2.12010452736141        2.65379564481022       -3.20572163221421
C            2.25595009433345        0.99353267805339       -0.98692242935018
H            2.95600309789081        0.92933680441267       -1.80733174459763
C            1.84115076103996       -0.15960099582283       -0.34957708675054
H            2.20814010468922       -1.11802420443845       -0.68843309245638
