63
 energy: -121.406142485458 gnorm: 0.000652891721 xtb: 6.7.1 (edcfbbe)
C            2.82225980040336        5.53031852367145       -6.67656482884910
C            3.76961293894078        5.96386001991488       -5.56414620064521
C            3.09295774134446        6.03633238217586       -4.19460122998411
C            2.64338975481989        4.66915445913159       -3.68085299922906
C            2.23454341514139        4.68113847543506       -2.20816285463270
C            1.04442659638678        5.58677244574722       -1.87357978639098
C            0.79184513163177        5.58152427435273       -0.35991033079106
O            0.34757899821022        4.30987943387771        0.07545551511234
C           -0.81616324033902        3.91174488566529       -0.58704839237221
C           -1.23175859078012        2.54229031915937       -0.10415426582191
C           -2.19707503584729        1.83880413953929       -0.81080939776851
C           -2.57514171593980        0.58427645494815       -0.37340830086582
F           -3.48727341469747       -0.09106184439117       -1.07786793849424
C           -2.00888902173478       -0.01327688611813        0.75395825665700
C           -2.45261694375460       -1.36389599374571        1.20882999696078
O           -3.58874834149133       -1.74166998088683        1.21301622220320
O           -1.37637497360873       -2.06997694731264        1.60938376769137
C           -1.41342126124142       -3.33525464276272        2.13183531696682
C           -2.53623473395628       -4.14912295732531        2.20155072813685
C           -2.40450002060732       -5.41296656733426        2.74709865541561
F           -3.50721963614774       -6.17344128252644        2.82210377771846
C           -1.20342039760824       -5.92067811321571        3.24188996600267
C           -1.09743941355108       -7.26798185341362        3.82331042779652
C           -1.69153895316844       -8.35643290034900        3.18755636518741
C           -1.58069907695660       -9.61454028414211        3.74181174711235
F           -2.14823491100914      -10.65059891907880        3.11434802686290
C           -0.88904038592162       -9.84228526422859        4.93534191127778
C           -0.78254224643264      -11.13731323488073        5.49436849350760
N           -0.69047569724464      -12.18293069109663        5.95075100387869
C           -0.30687759884355       -8.73014424661722        5.55086534040481
F            0.35846465783998       -8.89906363939294        6.69910252508302
C           -0.40060397728133       -7.46308800976239        5.01423872084994
C           -0.10591087408913       -5.06103404191740        3.15016432168988
F            1.09234969404641       -5.48592456802252        3.58118003313297
C           -0.18774018012513       -3.79800960921253        2.60698608719403
C           -1.04036369549849        0.72509562622282        1.43342116808622
F           -0.48145127724544        0.21325381275832        2.53883817969408
C           -0.65230980879570        1.98679918402787        1.02629442281537
O           -0.65302603828926        3.84964441906058       -1.97610344136311
C           -0.25687406501415        5.09578999846933       -2.51890660426260
H            3.32697585777864        5.57263451189495       -7.63891246402865
H            1.95555916839466        6.18695584788342       -6.71612031357876
H            2.47738963482745        4.51156570530940       -6.52105962961259
H            4.17008976050736        6.95108632649659       -5.80664427130050
H            4.61162662280036        5.26999890444110       -5.51424937222506
H            2.23559755715215        6.70914236628345       -4.26241518828074
H            3.79875819104516        6.46594715945429       -3.47920913921537
H            3.47258790304490        3.96598541907959       -3.78922458156499
H            1.81961873743965        4.29572223744281       -4.28875388614451
H            3.08800419793028        5.00692184333849       -1.60818869068198
H            1.98053721328764        3.66423184384654       -1.90152907789580
H            1.24291301591752        6.61181619510687       -2.19392143024592
H            0.03570660564055        6.34080957821607       -0.10285739368504
H            1.70500003372889        5.78054637952629        0.20261461100049
H           -1.62830003986268        4.64591078875319       -0.35592344405942
H           -2.63904687336624        2.25364263768297       -1.70154957456462
H           -3.50114693423593       -3.82318711897562        1.84986478981748
H           -2.23233937036477       -8.23998235248641        2.26242107618317
H            0.06316898325759       -6.64086053666225        5.53455167610781
H            0.68462946204002       -3.16829012645211        2.55124428978709
H            0.10087824573939        2.52787717213026        1.57418328883649
H           -1.05420584763654        5.83838834438529       -2.35229728138450
H           -0.14744532665432        4.92716049694253       -3.58961839921760
