34
 energy: -53.368233743388 gnorm: 0.000240708307 xtb: 6.7.1 (edcfbbe)
H           -0.99577281910450       -5.69584714720339       -0.89828938206397
C           -1.39015923242375       -4.83942251092359       -0.37111375604070
C           -0.71603300098681       -3.63685727389276       -0.38157006165316
H            0.22241987244509       -3.55692558686428       -0.90982778132213
C           -1.21608425162485       -2.52798515081152        0.30323313739789
C           -0.49272076569925       -1.25126871579245        0.29037456652424
C            0.12959541911683       -0.79310339973284       -0.86625024633824
H            0.06123352115155       -1.37232506858092       -1.77527179413950
C            0.81072177525803        0.41025196757515       -0.89081065407363
H            1.26924676660086        0.73332406348496       -1.81206688570723
C            0.89075291156917        1.18525691608572        0.26088258351421
O            1.53515807074933        2.37851517793707        0.35844101591683
C            2.20346011553041        2.89286655211833       -0.77591501540292
H            2.99401664461682        2.20051363520792       -1.09645798232680
H            1.49773081758049        3.03498566283595       -1.60609485224006
C            2.81615815241920        4.23319832420588       -0.37954232508782
H            3.44076027887110        4.08673302427765        0.50285762532727
H            3.44162974125513        4.59289321014032       -1.19813168358991
C            1.72713340184779        5.26316028687411       -0.05284582258418
H            1.05639991792227        4.85332265085148        0.70702224232314
H            2.17460781789889        6.18383315768148        0.33057688326253
C            0.95404778171861        5.58380025949765       -1.22519057825025
N            0.35525688497893        5.82260990525639       -2.16919974290899
C            0.27262821820756        0.73160968128216        1.42804124701670
H            0.34666333014998        1.33807676551142        2.31712436940826
C           -0.41050485785072       -0.46283073520090        1.43919612269946
H           -0.86560781062786       -0.80464308632449        2.35679953899099
C           -2.41799881817230       -2.65732564998462        1.00140790073371
H           -2.82665829956252       -1.80231366630515        1.51906598064268
C           -3.10317493915567       -3.85352997164151        1.01697200239530
H           -4.03582449057850       -3.94629233732155        1.55411101400577
C           -2.59169324839246       -4.95554431981111        0.32969836915970
C           -3.28718868896885       -6.18479552582065        0.34240955329606
N           -3.85020021673978       -7.18394109460874        0.35037441111545
