66
 energy: -82.862341049245 gnorm: 0.000206786157 xtb: 6.7.1 (edcfbbe)
H           -2.95253392961144        5.45404583092288        2.37751965504210
C           -3.25302335265081        4.62183083947858        1.75032387543906
N           -2.59856079551445        3.49458049251246        1.94187608062005
C           -2.93978866037170        2.44623472481070        1.19064085742117
C           -2.21592003903804        1.19574278656080        1.39115593393550
C           -1.21870780640586        1.10199949331674        2.35797985314841
H           -0.99344078239777        1.97106063760362        2.95597567804484
C           -0.52779258683616       -0.07739884137946        2.55486217787995
H            0.23653567057098       -0.11786909175409        3.31522025025369
C           -0.82262181049525       -1.19553101319714        1.77733105939836
O           -0.20913153327886       -2.39964357633381        1.87857268793583
C            0.82220326121773       -2.57154465835552        2.83004108870463
H            1.62325191906632       -1.83968622426255        2.65717805313739
H            0.42416346453015       -2.42601928972645        3.84422796664358
C            1.36990021850334       -3.98710460392459        2.67871247790449
H            2.05075703636598       -4.18758644157745        3.50814105883124
H            0.53669403441209       -4.68877782742737        2.74110752477497
C            2.09685237096852       -4.17374428929029        1.34913995682520
H            1.40987294976605       -3.93279108357097        0.53642375643135
H            2.93559545020885       -3.47503259800848        1.29613530453152
C            2.61560383688766       -5.59842623151981        1.17628656696688
H            3.28081213952700       -5.84450497359046        2.00786178025563
H            1.77552543298804       -6.29579530441309        1.20888852735065
C            3.36838245713713       -5.77595552623131       -0.14003643196953
H            2.70588636148466       -5.52377541101943       -0.97117276812409
H            4.21200159582781       -5.08209811393699       -0.16929298253651
C            3.88346101034000       -7.20193938484702       -0.31917442852689
H            4.53421433924644       -7.45854570955908        0.52041585019115
H            3.03906193015788       -7.89522145079656       -0.30451421628183
C            4.65520960440751       -7.37414101602538       -1.62507231773756
H            4.00498794505316       -7.11866361899821       -2.46517463901165
H            5.49935572804516       -6.68036676786788       -1.63915878310553
C            5.17305728561798       -8.79911533789242       -1.80454732223121
H            5.81915100089076       -9.05627766844129       -0.96187081092943
H            4.32908910358132       -9.49279905093660       -1.79683411028619
C            5.94980789904966       -8.96121250422424       -3.10539979669493
H            5.31677710928339       -8.72842341414249       -3.95900960288710
H            6.80686729107187       -8.29127131092699       -3.12356209427149
H            6.30972981312171       -9.98184600013701       -3.21314830730336
C           -1.82582534296865       -1.10425565006367        0.80604680209055
H           -2.04248382314425       -1.98032984177469        0.21489273885671
C           -2.51184506629106        0.07124685636973        0.61679345543563
H           -3.28611458004645        0.14538869830976       -0.13017771954630
N           -3.90375200732541        2.46841419020989        0.26792353488475
C           -4.55009609188044        3.60116837934835        0.08801842576767
H           -5.32976077481343        3.58420268934283       -0.66563740271572
C           -4.27131192688854        4.75911957866699        0.81099334861378
C           -4.98735705082780        6.04857469429698        0.56398585863642
H           -6.05888239176524        5.85447239036604        0.47015731963023
H           -4.83197457840652        6.72229943886525        1.40963123970281
C           -4.49094480625220        6.72370441933690       -0.72189500168405
H           -4.61986017526446        6.03597041883162       -1.56090857516189
H           -5.10493380899370        7.60611038111838       -0.91600910768630
C           -3.02502652997773        7.13904918504623       -0.63029063266076
H           -2.89571571244117        7.82749679250039        0.20869285556926
H           -2.40883282782099        6.25833490392303       -0.43305728242022
C           -2.54337443818886        7.81144509801996       -1.91330215396620
H           -2.67069122466863        7.12158335275988       -2.75113892542181
H           -3.15920491502011        8.69178678489182       -2.11403794061319
C           -1.07798076879319        8.23101327587074       -1.82658183152612
H           -0.95102375470008        8.92729553261059       -0.99426397035433
H           -0.46412223765357        7.35171699150340       -1.61819491339429
C           -0.59971984788305        8.88937279883485       -3.11477243622231
H           -0.69740496562350        8.20243539946554       -3.95275164455763
H           -1.18934623179747        9.77781660894409       -3.33107199858424
H            0.44432891668822        9.18216016151275       -3.03108345244403
