57
 energy: -103.676507512783 gnorm: 0.000161588715 xtb: 6.7.1 (edcfbbe)
H          -11.33159365543850       -0.12361187124429       -4.58822645891560
C          -10.32159625089363        0.09755499210342       -4.28913726727338
H           -9.59134670593554        0.13641174526570       -5.07642650083894
C          -10.03522390145676        0.30795576612204       -3.00911268349998
H          -10.83026532482589        0.26542279600247       -2.27672641123772
C           -8.73232915814328        0.62133972715194       -2.43663985959466
C           -7.50873206701365        0.59180536020458       -3.11721360870988
F           -7.45206037872421        0.24456071899876       -4.40951682642018
C           -6.31625382172125        0.90512591717006       -2.49158665496975
F           -5.17305088324504        0.85660409305147       -3.19349541163019
C           -6.24028014743998        1.27642986190529       -1.13815892732655
O           -5.01772234189620        1.56096369621792       -0.67559211785938
C           -4.81785159261372        1.95706741994645        0.67678288247711
H           -5.39202398822891        2.86543771668252        0.89049862922879
H           -5.14501752957394        1.16076338506871        1.35476828030062
C           -3.32713732609058        2.22173532177617        0.84979883369312
H           -3.01419733404979        2.94501991960737        0.09548402157929
H           -3.16840404719262        2.66147049328348        1.83555128936209
C           -2.50210257452873        0.94503328382881        0.70447957382724
H           -2.80320279021277        0.22997235834097        1.47332239438644
H           -2.70876912142103        0.50016551450368       -0.26968913256901
C           -1.00647939082486        1.22180048519316        0.82966636144480
H           -0.70162404962876        1.91879116217531        0.04610510353594
H           -0.80505016891237        1.69702364604731        1.79286927599263
C           -0.18574391992865       -0.05918298848708        0.71544198995231
H           -0.46807013858293       -0.75660257639347        1.50575827187395
H           -0.38107061120079       -0.54412833437443       -0.24199501669936
C            1.30930965309493        0.21874600012639        0.82666404451270
H            1.63239060973276        0.87861495715639        0.00964662240052
H            1.53036264800212        0.71160899657152        1.78396178077041
O            1.98497397945656       -1.02073446970741        0.74991805003602
C            3.33714394289177       -1.04115616062206        0.82303249030651
C            4.15062496266594        0.07815171197647        0.97735862602112
H            3.72582034272359        1.06637292951511        1.05643976363284
C            5.52408437583492       -0.06689119281011        1.03362687342305
H            6.13574193749751        0.81217895542813        1.17310207082407
C            6.12552083415615       -1.31913341762700        0.95171987889911
C            7.58288721183207       -1.46077598233029        1.01879891181067
C            8.16974900198287       -2.53273842751215        1.69674772877644
H            7.54001824339090       -3.25531082045627        2.19244451261352
C            9.53901006223371       -2.66769594174338        1.76510283277954
H            9.98440633041869       -3.49586756283065        2.29588654154966
C           10.37578199474627       -1.73180657294447        1.15141059575672
C           11.77938947919597       -1.87145382842989        1.22168150437834
N           12.91608870796903       -2.00053891720442        1.28924608649603
C            9.78233181777668       -0.66459402929122        0.47447461764227
F           10.55959563421907        0.25032044097222       -0.13155419492359
C            8.41324507978773       -0.52283147116558        0.40566097608186
H            8.00149725943730        0.30792056035299       -0.14547251888116
C            5.30144118425196       -2.43714869640894        0.80433500722870
H            5.74208159479413       -3.41859805315798        0.71376650830192
C            3.93459313082012       -2.30201865381398        0.73474688858002
H            3.29531855519282       -3.16142062083382        0.60892184385043
C           -7.45721770399491        1.29959558452727       -0.45158309520068
F           -7.52023184278109        1.63195452219305        0.85594968458060
C           -8.64848406891495        0.98015240903797       -1.08878323180533
F           -9.77027573866531        1.03014814084428       -0.35425143054876
