63
 energy: -111.193144210046 gnorm: 0.000387350238 xtb: 6.7.1 (edcfbbe)
C           -3.16011868825430       -6.45113887268018        2.41606116261431
C           -1.69974445877315       -6.87275798247675        2.30359496063351
C           -0.82540125169181       -5.83504870623746        1.59884989529865
C           -0.64929829993835       -4.54825290488611        2.40274525515954
C            0.29938999054248       -3.57760297131328        1.70467972573204
C            0.45887606116080       -2.27952918514599        2.49861460650194
O            1.30093215655859       -1.34636313890366        1.85108867436463
C            2.64156423690843       -1.48211605026702        1.87093610386586
C            3.30551037201939       -2.46756660481380        2.60062865125230
C            4.69271119737510       -2.54396091691321        2.61470313879616
O            5.39989287377770       -3.47355616540811        3.29625681199942
C            4.71660527991730       -4.44707054752900        4.05042040077049
C            5.44539030559952       -1.61628680270801        1.88611793031704
C            4.79961385451126       -0.64617557683146        1.16616566648444
C            3.40381506768188       -0.55346554314949        1.13188837037708
C            2.84998104273043        0.53044429003430        0.30450600997904
O            3.53429670851543        1.35005274718094       -0.26106118498762
O            1.50008403388615        0.48622697921736        0.23158729023496
C            0.70869218359420        1.36673650465274       -0.44874305307537
C           -0.64141054231554        1.00288113893588       -0.49241883455024
C           -1.55499241865345        1.80480912054365       -1.13265156973873
C           -1.14114096701158        2.99094267168009       -1.74601055228858
C           -2.16129239540685        3.81175813021382       -2.41754508322402
O           -3.33682532555370        3.55678557618359       -2.45252499493598
O           -1.59976453329198        4.89842247677736       -3.02390772514349
C           -2.30974736303644        5.85679825281106       -3.68576724732060
C           -3.66368284497040        6.13167171013514       -3.49544341098229
C           -4.24907741389695        7.15900172645007       -4.20355809039560
C           -3.51739850221334        7.93761709126192       -5.09624258614496
N           -4.19024000114157        9.00963924218385       -5.79252549763907
O           -5.40164395507436        9.01773212895752       -5.73864714857900
O           -3.51775443611726        9.82963135599333       -6.37027358056048
C           -2.16093941702333        7.65555909316512       -5.27556381820465
F           -1.41193347929517        8.34720710245372       -6.13208785952451
C           -1.56366027052285        6.62354033202590       -4.58048528175738
C            0.20382612116035        3.35136237310034       -1.69541990851359
C            1.12699009339920        2.55042834214481       -1.05186317898628
H           -3.75188205252265       -7.25689098844678        2.84391117422774
H           -3.56397415557459       -6.21459259522188        1.43414613300055
H           -3.26913410336548       -5.57796197056609        3.05388301049061
H           -1.64661691644134       -7.80777734958066        1.74145645563973
H           -1.29906136710891       -7.06514951815117        3.30153331029151
H           -1.26403663002679       -5.59554809777299        0.62787022789721
H            0.15938741815811       -6.27253988103589        1.41622167080117
H           -0.25711993371158       -4.79303007002231        3.39338711241345
H           -1.61626322293482       -4.06243252499491        2.53937553792823
H           -0.08584136884131       -3.33051896608975        0.71355395159931
H            1.27538755324068       -4.04787176345219        1.56630617967958
H            0.80282865127869       -2.48242043843212        3.52036099501387
H           -0.50602110496473       -1.76844889436352        2.56495005831234
H            2.73348895335975       -3.18043897685115        3.16939841522125
H            5.49062594353731       -5.07340759362419        4.49049868737284
H            4.07012258380152       -5.06465723786336        3.41895096122532
H            4.12337217751203       -3.99294777834791        4.85036395246410
H            6.51975889798412       -1.68858883194916        1.90784065268508
H            5.35771104262616        0.08007871540677        0.59566844513216
H           -0.93575677739138        0.08403773003489       -0.01104563623733
H           -2.59935794781457        1.53615419810116       -1.17546093147762
H           -4.25077895666621        5.54361342041349       -2.81075585731856
H           -5.29648668014306        7.38700439014532       -4.07482777710142
H           -0.51768744300543        6.41092362721570       -4.73141048158321
H            0.53047059097421        4.26761162721532       -2.16098310121522
H            2.16473983287188        2.83744335140801       -1.02126719428725
