48
 energy: -90.325165605612 gnorm: 0.000135757425 xtb: 6.7.1 (edcfbbe)
C            2.38018128424394       -5.68440729927833       -2.98317101395796
O            1.89063409215089       -4.67838097531702       -2.12717184684349
C            1.27035979350687       -5.02235517951872       -0.98929287868215
C            1.06708614358804       -6.33506344101962       -0.58296250106089
C            0.40645652723400       -6.62724442363183        0.60635106872590
S            0.23266428899444       -8.33633244397872        0.98082094456317
C           -0.66707807720855       -8.35985259455239        2.55699086191822
C           -0.06687287158239       -5.59780918330966        1.41263831081132
C            0.12717103323400       -4.29310622682820        1.01512014970744
C            0.78702138315857       -3.97314983390435       -0.16974862661142
C            0.99901621472255       -2.57216469512751       -0.56113773730094
O            1.70053317137267       -2.17122130072443       -1.44983409316865
O            0.25100369915516       -1.73673624792881        0.22751303341355
C            0.33672088985702       -0.37223852642230        0.10900919365153
C            1.52744485896702        0.30517019849623       -0.13566269366083
C            1.52108839455081        1.68361442806147       -0.18873186903893
C            0.34140122152020        2.40139133084672        0.00552695759753
C            0.40595865147992        3.87286968802981       -0.07307861539320
O            1.40864611906617        4.50601742893871       -0.27632215367865
O           -0.81551701268864        4.43407181235475        0.13951387586502
C           -1.04288627765289        5.78370841819585        0.06181886167331
C           -0.33126496579305        6.65120908247379       -0.76358124439438
C           -0.67506602300557        7.98779831042111       -0.79886403867320
C           -1.72724689611388        8.45327790618041       -0.02040562181415
N           -2.08142463873752        9.84794019583198       -0.06302982146046
O           -1.43130833627351       10.57308514324271       -0.78524636287843
O           -3.01101600416560       10.21343144698766        0.62530917833807
C           -2.44832259309915        7.58902959408296        0.79772476731092
C           -2.10447530365512        6.25681384874906        0.83688413100038
C           -0.84563931617116        1.71486495004386        0.26209310821875
C           -0.84587869788800        0.33834931906965        0.31331079159142
H            2.83010092176753       -5.15448664291898       -3.82071228716971
H            1.57428594052605       -6.32762955032408       -3.35010835072803
H            3.14122863147234       -6.29664720465430       -2.48977072829546
H            1.41840129566139       -7.16112528638326       -1.17987693373422
H           -0.79169871319020       -9.40942752291493        2.80484933931143
H           -1.63947485017200       -7.89202204376653        2.43621158498119
H           -0.08113547233507       -7.86688753689813        3.32687678598677
H           -0.57788962196052       -5.79920712410712        2.33896377056041
H           -0.23426879251490       -3.49106343768317        1.63893517256551
H            2.44264022200941       -0.24203696847264       -0.29035386888285
H            2.43239952448487        2.22929551957306       -0.37985584654501
H            0.48544177149520        6.28720381963423       -1.36401752733285
H           -0.13813619286868        8.68097700222727       -1.42812070222884
H           -3.26272771490652        7.97750241064633        1.38961342102072
H           -2.64305525372199        5.56145957931858        1.46071835719826
H           -1.76188520672751        2.26255456778394        0.41530802514574
H           -1.75362724177524       -0.21101031152798        0.50897567237331
