47
 energy: -93.652820976050 gnorm: 0.000147457843 xtb: 6.7.1 (edcfbbe)
C           -3.90344696272800        2.09097788228492        2.98055992684811
O           -3.35964642999011        3.19775253641763        2.29897764307163
C           -2.98458972765077        3.06390752742402        1.00794641118518
C           -2.47482726160743        4.21496822680285        0.39841191602725
C           -2.06088899574354        4.16563501746464       -0.90929116081251
C           -2.11215892988904        2.97971899942727       -1.64447435968916
C           -1.64186265074652        3.03857108569127       -3.04552712025755
O           -1.79242557810279        3.99633523389275       -3.75181890574812
O           -1.01425857106738        1.94220659276596       -3.57437873487279
C           -0.37384817114173        1.01060243802339       -2.82707893995564
C            0.35767704488085        1.32873579044291       -1.68174922231253
C            1.01523649243387        0.33561314490048       -0.98874291520622
C            0.97300087199444       -0.99533752309364       -1.40685754626085
C            1.64133182675933       -2.07418527060433       -0.64582956649623
O            1.40947791597660       -3.24677912788727       -0.74064093598957
O            2.54630226714745       -1.54648860828900        0.22337232117817
C            3.34560949026738       -2.33654236782877        1.01444757380871
C            3.70401369297817       -1.79825141035529        2.25051308505289
C            4.54312892876225       -2.49358518363524        3.09215429033215
C            5.04339976822331       -3.74326785212518        2.71842340004161
C            5.90259737371373       -4.45610030075630        3.58651392691542
N            6.59817141318984       -5.01688249003049        4.30298878048064
C            4.67616880321180       -4.25883233963078        1.47465477439966
F            5.15279425665152       -5.44812638174988        1.08698626955739
C            3.83760923974780       -3.57293647412459        0.61642370228399
C            0.26200823892429       -1.28372512698741       -2.57636902511535
F            0.21288651075135       -2.53408130296624       -3.04414060135866
C           -0.39468651219312       -0.30252532246063       -3.28927323045266
C           -2.66130584155035        1.83210505076482       -1.04649588581259
O           -2.77573452521576        0.73010650549309       -1.82781713907312
C           -3.30354494102129       -0.45822016064389       -1.28565568201933
C           -3.08431338086994        1.88379311673555        0.27744477420116
H           -4.12432577535800        2.44617566331485        3.98552085698069
H           -3.18897976990305        1.26395514062280        3.03935840494027
H           -4.82852962326130        1.74448134913969        2.50983440080678
H           -2.42336134401228        5.12409620354881        0.97361796983728
H           -1.67219816241920        5.04641176765797       -1.39654605718747
H            0.40960885427492        2.35152950224488       -1.34204846474826
H            1.57310299969564        0.58413415125961       -0.10026809205745
H            3.31553504195047       -0.83257428872887        2.53152943356441
H            4.82161335142307       -2.08211923214155        4.05009659550179
H            3.57803977093896       -4.01214236626448       -0.33266179073002
H           -0.93508421724630       -0.54867526208365       -4.18838347971758
H           -3.27582707895034       -1.18437384895090       -2.09589484983006
H           -4.33806349059713       -0.32433275245055       -0.95679629510516
H           -2.69289977422483       -0.82460457084120       -0.45468639400600
H           -3.50253643842113        1.00283663824367        0.73362993772668
