54
 energy: -70.204428826536 gnorm: 0.000124111498 xtb: 6.7.1 (edcfbbe)
H           -3.49326416266483        1.57296963221543       -0.94173038902878
C           -2.41725070103253        1.58468677029392       -1.07715227345299
N           -1.82126638301019        0.41088808655793       -1.03094220345363
C           -0.49750246536588        0.38277367783574       -1.19591980373962
C            0.17216218642282       -0.91219001797290       -1.14344113509594
C           -0.55758456999968       -2.08011080096765       -0.93968878166581
H           -1.62747313867766       -2.00836393762668       -0.82229613973976
C            0.06828218044879       -3.31017678177148       -0.88856133141728
H           -0.52650166122958       -4.19642042307341       -0.73094575228887
C            1.45073182127380       -3.39503458851071       -1.04107648150574
O            2.17072086185424       -4.54265765664025       -1.00933174465451
C            1.50434166411232       -5.77209578563008       -0.80217697999782
H            0.96654798900832       -5.75443703113625        0.15589627588210
H            0.77996856437649       -5.94719567349089       -1.61000909872544
C            2.55376787081709       -6.87929678073031       -0.79160339378642
H            2.04195863473193       -7.84351062438275       -0.77740248648458
H            3.13499376402635       -6.81298359180269       -1.71273177230896
C            3.48824909267924       -6.76505134368991        0.41028852801531
H            3.95891814990262       -5.78080840039359        0.39619225337065
H            2.90407201172885       -6.84357332847634        1.33057089134177
C            4.56533927647871       -7.84640039802432        0.40298506691177
H            4.08995770378039       -8.83028050089340        0.40370492087260
H            5.15293098339406       -7.76390724222309       -0.51388072373524
C            5.48968059288412       -7.72949606758297        1.60859851448734
H            5.98480622254837       -6.76108559819258        1.61580598390152
H            4.92580644634590       -7.83142751561827        2.53334866465563
H            6.25181419351851       -8.50491050078113        1.58448548974718
C            2.18638745308226       -2.22248116104847       -1.24621783716599
H            3.25554658616538       -2.30706645753381       -1.36306586475976
C            1.55785897996239       -1.00162877397753       -1.29710657661332
H            2.12137196101099       -0.09596714747024       -1.45556012271460
N            0.25365115884031        1.46510854488999       -1.40848847556874
C           -0.35552870210253        2.63146168017306       -1.45336567473414
H            0.28222940882695        3.49026535681292       -1.63187424990341
C           -1.73132916101526        2.77721558811962       -1.29151610431308
C           -2.40556173931266        4.11140186776770       -1.29772909337344
H           -1.90134860902898        4.77570103945422       -2.00354587620458
H           -3.44546885516310        3.99857116842117       -1.61251847034602
C           -2.36554336879112        4.73998798685637        0.10079497265197
H           -2.86903704966212        4.07511270879344        0.80683831159621
H           -1.32512483470755        4.83451297451297        0.42103288209937
C           -3.03331319553389        6.11199734838071        0.12561856686417
H           -2.52860052429270        6.77255393765537       -0.58372474423993
H           -4.07285168957919        6.01463431082829       -0.19691148902567
C           -2.99296535813084        6.74057318141979        1.51626180868430
H           -3.50129076937545        6.08238658421629        2.22494538433177
H           -1.95359630827741        6.83341341972387        1.84024174932729
C           -3.65337670172809        8.11687702986153        1.54478891298635
H           -3.14481106878212        8.77546591864890        0.83686600776245
H           -4.69293713259521        8.02478199008183        1.22176705175398
C           -3.60853064209266        8.73776588098667        2.93550910893835
H           -4.12840780640024        8.10571775480078        3.65226998401457
H           -2.57926497368321        8.85508529921791        3.26769171807912
H           -4.08234418598063        9.71662839111426        2.93402202175912
