70
 energy: -147.274366012471 gnorm: 0.000165672260 xtb: 6.7.1 (edcfbbe)
C           -7.56364201428759       10.28292041198296       -2.26524090792191
O           -6.45820530377948       10.15057662383365       -3.12831305715599
C           -5.71911309254577        9.02022995931399       -3.09367556323150
C           -4.63341274798423        8.97320670057409       -3.97549859928131
C           -3.83116342920642        7.86303373537268       -3.99671111875975
C           -4.06174492410943        6.76599977901242       -3.15892412052754
C           -3.11170820257050        5.65027113004338       -3.28072164570405
O           -2.22148232028997        5.61924037606992       -4.09551469744258
O           -3.32909498727134        4.68016471083384       -2.35875485002997
C           -2.59465864508364        3.53632572956978       -2.24374741299343
C           -1.73047327860347        3.01516205517374       -3.20461997118781
C           -1.06155439108450        1.83835502477558       -2.94201495157487
C           -1.22109454191086        1.14267111798335       -1.74250554100450
C           -0.41793405430233       -0.08786015708589       -1.55229877526657
O            0.27710456660725       -0.56724164734178       -2.41168576372459
O           -0.56453913294960       -0.59203764722651       -0.31353485163597
C            0.15017083343085       -1.66927349274399        0.15431407070719
C            1.42738823005329       -2.01161892708306       -0.27151951909869
C            2.07804277288355       -3.07655910319162        0.32120720763771
C            1.49971862148513       -3.81929384851155        1.34833496788298
C            2.22968871554324       -4.93155025109734        1.97469614764485
C            2.22301828454410       -5.10697874989149        3.35667551847726
C            2.93791634162596       -6.13559019266764        3.93917932737287
C            3.67659501521083       -6.99926792054369        3.14186998540277
C            4.46213452048714       -8.13573887404431        3.75036899989770
F            4.67269735043703       -7.93052464783370        5.08398062148367
F            3.75323992224682       -9.28854116195220        3.69055144026688
O            5.65489831320110       -8.42818642299828        3.13012178959401
C            6.59576952420872       -7.45386294547720        2.94908462643261
C            7.65248949461380       -7.79362427170397        2.10809476286489
C            8.65877220070232       -6.87960507791226        1.87113715548367
F            9.66820694420398       -7.21372468491810        1.06133204058005
C            8.63587808300711       -5.61411014682981        2.45188467831654
F            9.60880274522353       -4.72800599246763        2.20914559685784
C            7.57522998798920       -5.29919519645002        3.29123764188464
F            7.52481122274960       -4.09316855000553        3.86680004316408
C            6.55861251819028       -6.20298239857105        3.55100860073569
C            3.67705036864659       -6.84738864118031        1.76056364603020
C            2.95976361209379       -5.81878444002772        1.18466648415078
C            0.21661692174127       -3.44661100511403        1.74913614316784
F           -0.41210914281166       -4.14210790798094        2.71775974723339
C           -0.46196569469745       -2.39526294384144        1.17078062123290
C           -2.11057259081381        1.67333539023361       -0.80577161139518
F           -2.34326129890244        1.05460596636831        0.36243952126495
C           -2.78888872262708        2.84862992021805       -1.04548237076982
C           -5.15991720629718        6.80683561504567       -2.27614165198910
O           -5.37922727456759        5.73458410841928       -1.48727915424869
C           -6.47988433934068        5.72610884425785       -0.60871853285426
C           -5.97272271821786        7.93872887736210       -2.25757058255262
H           -7.98333089474741       11.26509381077453       -2.47556472420587
H           -7.26045412989383       10.23825937692036       -1.21459163114520
H           -8.32128760337399        9.51805112768123       -2.46206867963419
H           -4.45219860590084        9.81764388167068       -4.61900039638040
H           -2.98693976872613        7.80540201930345       -4.66621978321635
H           -1.57496514974218        3.53210924346177       -4.13625359158477
H           -0.38254916770038        1.42409457611099       -3.67166043185487
H            1.90912702020278       -1.45538341658020       -1.05803454492836
H            3.07755941401349       -3.32454776471983       -0.00119712366071
H            1.66588810200055       -4.43012182338494        3.98457353779903
H            2.92976138902731       -6.26461257729531        5.01064633926073
H            7.68609992262833       -8.76822285903209        1.65069140857466
H            5.77381981339972       -5.90609567576382        4.22656164938874
H            4.23477157425774       -7.53716344624098        1.14491060665390
H            2.94904882261064       -5.71154055247384        0.11102289060573
H           -1.45219472461028       -2.13059200145628        1.50390332583200
H           -3.46926532739108        3.24525805967527       -0.30968343819420
H           -6.44592308052506        4.75817153171488       -0.11132338843108
H           -7.42843772858186        5.81828619881864       -1.14692411547357
H           -6.40405625930886        6.51866985374982        0.14249523702203
H           -6.81077067451170        7.97493160731849       -1.58239928187636
