47
 energy: -71.419759893606 gnorm: 0.000181455776 xtb: 6.7.1 (edcfbbe)
H           -2.55334663533940       -7.92776824180309       -1.68557238319963
C           -2.92153324489817       -7.14514361411872       -1.03833439912209
C           -2.27620505695369       -5.92857230792347       -0.97043435417137
H           -1.38629674836670       -5.76339822420231       -1.55958189795012
C           -2.74216161429525       -4.91622967592850       -0.13024261976526
C           -2.05109895151690       -3.62333253705745       -0.05951471547129
C           -1.55438318365503       -3.01400542911999       -1.21040875578577
H           -1.69034722628256       -3.49354960932923       -2.16903945192066
C           -0.91823725672314       -1.79147893544457       -1.14366948935986
H           -0.53413497120082       -1.34033922428527       -2.04684830009367
C           -0.74365112692839       -1.14100958573104        0.07678362074887
C           -0.07279353344745        0.16265322649032        0.15037778610532
C           -0.30020611182521        1.13891801173685       -0.81336382093285
H           -0.98749420229110        0.94009714237971       -1.62261367824685
C            0.31017034422024        2.37842620196482       -0.74401586246995
H            0.09670531511826        3.10948266135842       -1.50816216622920
C            1.17887940943934        2.66701501057374        0.30252787744776
O            1.82914907890759        3.84895831209896        0.47887288279140
C            1.62702133104922        4.88763836950469       -0.45554132287424
H            1.94783924330530        4.56699953658527       -1.45677749368676
H            0.56264294147671        5.15870266262874       -0.49634047349466
C            2.44916345981954        6.09004927006303       -0.00174277896185
H            2.20276688537856        6.94156576074699       -0.63935987956666
H            2.16497047770044        6.33243488791062        1.02405818208874
C            3.94636139821731        5.79875880853083       -0.06403571047240
H            4.16062195966710        4.90970373870239        0.53121931491239
H            4.23773734982118        5.59136786493955       -1.09652103822838
C            4.76275214127829        6.98255203555297        0.46689843418688
H            4.53976634989905        7.88628230722969       -0.10857907360557
H            4.51808400286420        7.17231553386693        1.51594789379375
C            6.17524882248834        6.71929732590293        0.36811171849883
N            7.29300650213987        6.49808249549440        0.27919549066846
C            1.42246864521783        1.68880717788005        1.26873110211629
H            2.10524187156371        1.92036762470750        2.07111730357743
C            0.80348089396711        0.46188053040249        1.19455787937335
H            1.01725985441080       -0.28608928208606        1.94345349509255
C           -1.23068278488193       -1.75726110498911        1.22847673138403
H           -1.11719195116797       -1.26538252860908        2.18336931822439
C           -1.87886530688120       -2.97312459941988        1.16128913047337
H           -2.23866357080963       -3.43714476317317        2.06823896583975
C           -3.87993221807535       -5.15527686823919        0.64219728658030
H           -4.26226838873682       -4.37361923400243        1.28183740922326
C           -4.53673021230309       -6.36579039407719        0.57976627041826
H           -5.42033450951580       -6.54370699427862        1.17525013038571
C           -4.05939975509097       -7.37150796081025       -0.26227216484660
C           -4.72667870721296       -8.61468767995441       -0.32817384337052
N           -5.26870100955131       -9.62394770266900       -0.38113255010810
