54
 energy: -116.147521281285 gnorm: 0.000297085085 xtb: 6.7.1 (edcfbbe)
C            9.14208150023098        2.03459269524729        2.34518908959969
C            7.70955639470977        1.52259966064972        2.32420489384985
C            7.19508411968996        1.32499098846289        0.89460439560999
O            5.83515332557448        0.93123444421652        0.89825001163766
C            5.02626679752407        1.85551427271120        1.56767665760749
C            3.59429546291817        1.37750270710179        1.52467692089746
C            3.16020803719154        0.59378384411660        0.46527204873341
C            1.84483952294373        0.17506210313644        0.42781003182949
F            1.45592744824425       -0.60250348380638       -0.59184969630983
C            0.92673472922511        0.50676666221476        1.42510398577210
C           -0.48337863325851        0.01825960939551        1.41215012068987
O           -1.08772997883521       -0.33481340347064        2.38494775082924
O           -0.95176777234069        0.04088841711707        0.15024972934186
C           -2.18361751840694       -0.41781742265270       -0.24486107622613
C           -3.15029532917591       -0.97953419757920        0.58035270685635
C           -4.34035328942332       -1.41469238104490        0.02739876004967
C           -4.60013047074062       -1.31382557470073       -1.33546787748862
C           -5.88022145820876       -1.82661005136034       -1.86137273263664
C           -7.07495923234145       -1.30552614846289       -1.37210691362082
C           -8.27696840988434       -1.78810722187892       -1.84710505953305
F           -9.41585342539795       -1.27003904398166       -1.37369229924052
C           -8.33935577607838       -2.80644309515530       -2.80251065207549
C           -9.57731371643613       -3.29837961814031       -3.27970512164471
N          -10.57898426020888       -3.69857664337818       -3.66222264059521
C           -7.12320460234570       -3.32136794048594       -3.26098068429364
F           -7.13684126671786       -4.30848071281835       -4.16182961128388
C           -5.90881868970647       -2.84867661281375       -2.80551902153276
C           -3.62807421743619       -0.72060277366672       -2.14747338584958
C           -3.86261847255642       -0.51682717647991       -3.62209711552281
F           -5.12581579031007       -0.16016621768967       -3.90845140350734
F           -3.08019948444873        0.44100836637712       -4.13450049753301
F           -3.61158946124227       -1.62644478131014       -4.34210248238138
C           -2.43126159072526       -0.28154899524539       -1.60866375945495
C            1.40500765653878        1.28856365229454        2.47832850918823
F            0.56444218798273        1.65798336614371        3.44822164254467
C            2.71290225578914        1.73135405217512        2.53546143434459
O            5.40797681418672        2.04042039686946        2.90005321206441
C            6.74412899157580        2.49663183794177        3.00756463659031
H            9.80248223531617        1.32641403370311        1.85154676114721
H            9.47999791469158        2.16782661046522        3.36954313628304
H            9.21543779456447        2.99047889473806        1.83083265956958
H            7.64469051916660        0.56138057857953        2.84339008925732
H            7.73189420936821        0.52731529406888        0.37926230383622
H            7.30608587871283        2.26290655201049        0.32631995557827
H            5.09650722893206        2.83918177813824        1.03736277518295
H            3.84435107497692        0.29752050493667       -0.31228494149123
H           -2.97894688601739       -1.07874217598836        1.63943757729850
H           -5.08593188982020       -1.86218283424022        0.66653677716894
H           -7.07495976451015       -0.51367394489314       -0.64015991566157
H           -5.00105640003062       -3.28821584414402       -3.18677919926303
H           -1.67614453644201        0.17326709638684       -2.22998556643636
H            3.04531197258028        2.32894330196207        3.36780209803880
H            6.94303254281616        2.57812762982821        4.07697004482690
H            6.83198570753776        3.49327894435402        2.54518093734314
