65
 energy: -154.897056110574 gnorm: 0.000187683719 xtb: 6.7.1 (edcfbbe)
C          -11.40011419374531        2.33466991041633        0.17977964899855
C          -11.42804251771159        1.55041057518323        1.48669193595218
O          -10.89118381171175        0.24238306358105        1.34312552884601
C           -9.56819605116200        0.05196906723457        1.27575685506805
C           -9.15564357367819       -1.26600875967876        1.04343562629865
C           -7.81705451765636       -1.56572809075810        0.95487629866139
F           -7.46686492022940       -2.83586470124249        0.74697333912325
C           -6.81519544929676       -0.59851770742426        1.11045953861428
C           -5.38364556320735       -0.95252402246393        0.94931106092097
O           -4.96478584228653       -1.79034670699732        0.20220653967040
O           -4.62432868686898       -0.16850014081658        1.75205482247735
C           -3.25715220303790       -0.15755491787022        1.74998641778373
C           -2.67762910985859        0.98371268738942        2.30407752869532
C           -1.30758942898481        1.11101941832430        2.33425234755808
C           -0.48414723144022        0.11618653902342        1.80763580309184
C            0.97825204842636        0.40718475912293        1.79545820027779
O            1.53714631002793        1.04716710237956        2.64216303749286
O            1.53379071727550       -0.06976101131853        0.66571473700185
C            2.84695060940270        0.06848919808502        0.29890631092768
C            3.13659030250644       -0.38942733296613       -0.98616152502316
C            4.41479334032473       -0.27547905278470       -1.48652789180672
C            5.42719640780708        0.30014108565436       -0.72152226084852
C            6.76879570522462        0.52685322659376       -1.32850399216541
O            7.41341306037005        1.52898080093735       -1.21823354584783
O            7.11727366339610       -0.54083678026199       -2.08503376633923
C            8.31335249849276       -0.60588456715949       -2.75662476286316
C            8.30958676169890       -1.37920565220809       -3.91572710544202
C            9.47754373186392       -1.52597326037892       -4.63260872989456
F            9.46284513877177       -2.26706035788601       -5.74450887958559
C           10.67257857878716       -0.91937427981569       -4.23283106993648
C           11.86364178939691       -1.06992623820724       -4.98201656947506
N           12.82492384438584       -1.19219623264323       -5.59072273339072
C           10.63582791248978       -0.16054274384476       -3.05948316840058
F           11.75752815726976        0.42467158570405       -2.63585743744585
C            9.48232728692400        0.00250112164901       -2.31573938056468
C            5.13555458803914        0.71623396588926        0.57904313523453
C            6.22280701594828        1.26978624236875        1.47024478101540
F            7.37520877170657        0.58919910747493        1.34947385382807
F            6.49306023911343        2.55597918984264        1.22543847530712
F            5.89176864607212        1.19806827904310        2.76770549405861
C            3.85326588321727        0.60174421415108        1.09606094329668
C           -1.07156511972372       -1.04813764205720        1.30727326040973
C           -0.24134932416381       -2.21167958387655        0.82128086401200
F            0.85477532040424       -2.42016337737961        1.56871141328627
F           -0.92335217914758       -3.36302004502596        0.84507023634294
F            0.18113004037344       -2.06021999546776       -0.44689322675488
C           -2.45240156091473       -1.18955711536438        1.27875810365829
C           -7.25952662661751        0.70012458495739        1.35707350609034
F           -6.36874202647683        1.69451947545542        1.48860810864814
C           -8.59499745166536        1.04022302939606        1.43282787929948
H          -11.87458025208417        3.30071842601881        0.32560268136528
H          -11.94171534246953        1.78931603729644       -0.58858546463373
H          -10.38112063662455        2.49147108241726       -0.16496186706319
H          -12.46199283533254        1.37988491266674        1.79637416705524
H          -10.91139405154346        2.09208792283603        2.28660141135491
H           -9.89494864155845       -2.04120532935032        0.92952486071328
H           -3.32375381019668        1.75606393566403        2.68951480522451
H           -0.84394319187127        1.99135754163958        2.75148905810585
H            2.34134818100512       -0.82688664273482       -1.56851717083673
H            4.63716097849574       -0.61591248290511       -2.48500369548921
H            7.40479341919264       -1.86051716555113       -4.24854015085652
H            9.51130572642224        0.59964004797237       -1.41919847651453
H            3.64533686585522        0.92441937624879        2.10392747225038
H           -2.89372807262083       -2.09259069801934        0.88771212832928
H           -8.84116931641188        2.07343512241449        1.61257065461540
