51
 energy: -98.534367435376 gnorm: 0.000203935421 xtb: 6.7.1 (edcfbbe)
C            3.36694610019808       -2.14829583409889       -4.58333693544516
C            3.64336992735007       -3.16287155992793       -3.48534528411597
O            2.88848837476787       -2.76802918822709       -2.35530046618169
C            2.93552671358042       -3.47547959940369       -1.21997756084727
C            3.70844104028433       -4.62559433751542       -1.06053937858201
C            3.71735939346088       -5.31647382725861        0.14455323915990
O            4.43363416372033       -6.43805240985560        0.38113502128097
C            5.23183262525444       -6.97805911945362       -0.64626462624181
C            2.94429479111179       -4.85168552440852        1.21487468210703
C            2.17886129677443       -3.72414577071906        1.06404340589783
C            2.14887626545548       -3.01407553473304       -0.13995908554409
C            1.31737694239608       -1.81404923589570       -0.29351389604349
O            1.24708501530401       -1.10631584359578       -1.26313060130109
O            0.57631760573663       -1.60280599352750        0.84074580714330
C           -0.27667425743754       -0.54653355371470        1.00623891039977
C           -0.17366895478059        0.67660125348845        0.34834943003933
C           -1.07960839599786        1.68079714584587        0.62680630880084
C           -2.08985571005836        1.48721704338765        1.56694227210220
C           -3.08469923937215        2.52157254504227        1.89666860030884
O           -3.95243667757710        2.39840995922325        2.72098566744441
O           -2.88993027177749        3.64740104041929        1.15035483034453
C           -3.66533714723345        4.76658352324941        1.20429381551457
C           -3.15859966889723        5.86308960675022        0.49537789006784
C           -3.85831479971108        7.04386315243338        0.45739194052639
C           -5.07602149570014        7.17331918029745        1.12564790085193
N           -5.76348882317581        8.44172851253716        1.06574540494215
O           -5.37169281228925        9.23270393839723        0.23328168278880
O           -6.66705758818709        8.64361141604883        1.84096689943815
C           -5.57539375064620        6.07382910384305        1.82306723634085
F           -6.74806196544146        6.12869714341845        2.44983046853950
C           -4.88442589204361        4.87390355375756        1.86328864259919
C           -2.17688129407107        0.26277212939604        2.23472998070595
C           -1.28185306348520       -0.74311246936118        1.95717298693151
H            3.92344298857653       -2.40705456869617       -5.47964295109943
H            3.65954854038234       -1.15751154267407       -4.24883216310757
H            2.30474019164200       -2.13220426707391       -4.80829223265308
H            4.71460024827630       -3.17576856504931       -3.23998108353599
H            3.34111356959065       -4.16818124272148       -3.81069614675640
H            4.30404662015576       -4.97873395784641       -1.88533271769467
H            5.69510738503224       -7.86660376253178       -0.22081418669395
H            6.01317239070193       -6.27808295161374       -0.95805640065325
H            4.62947832653989       -7.26548246680527       -1.51358180427451
H            2.96787177967208       -5.39892640818007        2.14250205536705
H            1.58362539813680       -3.36889113753080        1.88924090927232
H            0.60101230880352        0.83588911430144       -0.38275629080673
H           -1.00030641368881        2.62495878008323        0.11192991864111
H           -2.21522697990593        5.75974063489320       -0.01517774244840
H           -3.48327602692864        7.89860704158829       -0.08472302022621
H           -5.30639685534167        4.04828672371831        2.41261131505833
H           -2.95947749055539        0.12424916654952        2.96470496691014
H           -1.33747442860299       -1.69480103624408        2.46178238471819
