60
 energy: -130.455967089733 gnorm: 0.000137657161 xtb: 6.7.1 (edcfbbe)
C            3.33066493506985        1.70538961967301       -6.92918574604419
C            2.39757625770691        0.57941102816247       -7.35794206684088
C            2.34741836296425       -0.52733816894565       -6.30750651528864
C            1.44362147702496       -1.69811940924884       -6.70602692216750
C           -0.04039055739748       -1.34389851627492       -6.54608952353665
O           -0.37131995598950       -1.16070556469852       -5.18168406345876
C           -0.07678266871220       -2.29282204633126       -4.41411130031458
C           -0.46273219488027       -2.01032907750536       -2.98152570313805
C           -1.61269955756424       -1.28024089661424       -2.71665620097364
C           -1.96643564527577       -1.02738654099580       -1.40570634145778
F           -3.06153009812979       -0.30184773228771       -1.16996330295973
C           -1.19830438479887       -1.47141475342322       -0.32575672561989
C           -1.62716721988155       -1.18562134013139        1.07065067599286
O           -2.76248160586218       -1.15064951974678        1.44660263337665
O           -0.53532078536005       -0.98140355201843        1.84623968175864
C           -0.57739009660820       -0.70038717938660        3.18046926954132
C           -1.69413905109289       -0.23915683770261        3.86577841782552
C           -1.57871381833817        0.04358046922783        5.21466544011659
F           -2.67664187169653        0.47698204497649        5.84443847118465
C           -0.38470459214233       -0.09228767949521        5.91924145947424
C           -0.28813296009871        0.19216892129497        7.40925497298170
F           -0.47829076075795       -0.95452746976317        8.10044980023117
F            0.97272026084707        0.59294544147835        7.73491481607835
O           -1.19611330689291        1.07513972202172        7.91958340229880
C           -1.30320491003823        2.33949972585478        7.40274588844703
C           -0.38899386735236        2.90667504118310        6.52564539244172
C           -0.60850206091307        4.19527737083600        6.06600715199296
F            0.27143943521437        4.72968069320104        5.21216725134828
C           -1.71366878975657        4.93392775734900        6.46611229347864
F           -1.91201430078267        6.17593688136025        6.01032805891742
C           -2.60970610722850        4.34583519328998        7.35639152484415
F           -3.67940615190808        5.03551041544186        7.76092616783418
C           -2.41637058741379        3.06156170572048        7.82192693806129
C            0.70822896615561       -0.58280869157369        5.19971611139794
F            1.87580290838796       -0.77484041068592        5.81274531667066
C            0.62895251646407       -0.87615712927306        3.85450989019933
C           -0.04805173713967       -2.19923784629872       -0.63576709570194
F            0.71555189055611       -2.67815899239306        0.35486386732227
C            0.32196206573157       -2.47667292690182       -1.93735011709159
O            1.27326790563024       -2.64710618646617       -4.47237134284159
C            1.68882805838300       -2.91145653226198       -5.79965033973366
H            3.36221111252571        2.48505336792203       -7.68632966480413
H            4.34069291770263        1.32981609657903       -6.78115468564973
H            2.98962495476176        2.14671409670094       -5.99560995788846
H            2.74391009199085        0.16160241342653       -8.30645995095466
H            1.39837532953771        0.98719405932011       -7.51980277361983
H            1.99181999659122       -0.11996488897130       -5.35920875321200
H            3.36005354012482       -0.90496242226586       -6.14813775544354
H            1.63704582937690       -1.98457922050171       -7.74367959499971
H           -0.66313721756924       -2.14790929913484       -6.97025900351767
H           -0.29103217935877       -0.40309628464229       -7.03549210515794
H           -0.68814134618893       -3.15007055674518       -4.79415752143622
H           -2.21819265168504       -0.89745742186045       -3.52138146965179
H           -2.64939971448834       -0.10936455129083        3.38422555996721
H            0.50142519561998        2.39637734185289        6.19634786818037
H           -3.12262168708024        2.61402214030778        8.50029119774418
H            1.49245279946693       -1.24857004972936        3.32821738567448
H            1.21938215092001       -3.03761390782370       -2.13835058891950
H            1.13942366479723       -3.78484530254563       -6.18719411643634
H            2.74929181666356       -3.15731264118907       -5.73095565653260
