41
 energy: -56.223542994699 gnorm: 0.000167884112 xtb: 6.7.1 (edcfbbe)
H           -1.26377077600150       -1.64324180818311       -1.67552305167213
C           -0.16822842826737       -1.55337134971429       -1.64037906661903
N            0.41815006302984       -0.60923305593728       -1.02761708496684
C           -0.25768183224716        0.32945560914615       -0.27777188048262
C           -1.30076999043582       -0.00149229638114        0.59033204928102
H           -1.61337790086368       -1.03306163639601        0.67425379014214
C           -1.90178661395512        0.97384320978476        1.36008091644052
H           -2.70488382916098        0.70227928174138        2.03146133348585
C           -1.49946729792634        2.30110311048680        1.27870374008096
C           -2.14374769565118        3.35230689326491        2.13441115338196
H           -2.11952943263170        4.31570991090656        1.62013258956429
H           -3.18832983187301        3.09199865841564        2.32013043359421
C           -1.41455310831492        3.48344577388848        3.47671458769775
H           -1.43981870900445        2.52077953521909        3.99271263803642
H           -0.36653121538043        3.72986987931427        3.29112195464994
C           -2.04147336689933        4.55522000308535        4.36422935858292
H           -2.01209794387365        5.51619075623919        3.84500376576642
H           -3.09092051039514        4.30834777964582        4.54218329746892
C           -1.31766312007556        4.67921349326887        5.69922539432921
H           -1.35637275186422        3.73771937537431        6.24292339588060
H           -0.27312222386195        4.94036971339058        5.54362905423505
H           -1.77658156279519        5.45007949599331        6.31415304267388
C           -0.45117097280532        2.62434018952142        0.42327965448997
H           -0.12054208787522        3.65133184632594        0.35459526232414
C            0.17282112661753        1.65673565741001       -0.33486991654874
H            0.98155352618572        1.91111146103042       -1.00298914568487
C            0.56713957024714       -2.56020584386088       -2.37503983409433
C            1.96148993155552       -2.55220100035055       -2.41029698944520
H            2.48176258199613       -1.77737434854266       -1.86940038807870
C            2.66339441976995       -3.50535038687853       -3.11897297510240
H            3.74152438863267       -3.46806290486861       -3.12610197313490
C            1.97785763562648       -4.49979744033847       -3.81496860592369
O            2.56116673043788       -5.48334709980955       -4.54726256058512
C            3.96548156577701       -5.52322027201931       -4.63339691417148
H            4.36544465530176       -4.61534441953692       -5.09599064829722
H            4.42477074405372       -5.66391894230591       -3.64986096155306
H            4.19711170299116       -6.38002742763038       -5.26415934715761
C            0.58012957432026       -4.51732366406949       -3.78065089372035
H            0.06676739652660       -5.29510003726491       -4.32383283621213
C           -0.11190500342823       -3.56297884041190       -3.07323701261101
H           -1.19222940748131       -3.58673885895360       -3.05697532604617
