48
 energy: -98.770052364970 gnorm: 0.000141513823 xtb: 6.7.1 (edcfbbe)
C            4.14654603074847       -3.95700752780459        4.20984115596275
O            3.20069628692346       -3.18979902356005        3.50030498758196
C            2.07576583915359       -2.79550198680209        4.11029480023766
C            1.76353872756847       -3.09805871365251        5.42976811351107
C            0.57697391143969       -2.66038887814425        6.00986370992001
S            0.33099011637545       -3.12351626397498        7.68564402491864
C           -1.27487986868286       -2.39813049694078        8.12064945890234
C           -0.32481404822206       -1.90511311004672        5.26564456906515
C           -0.02482577531352       -1.60057480839256        3.95745044777070
C            1.15792279987892       -2.02549770712432        3.35087007636004
C            1.46397811043059       -1.68942346905737        1.95707640412577
O            2.45852231400192       -1.97810954125544        1.34991415504405
O            0.42164726995327       -0.97795184811423        1.40113549402651
C            0.39571361431116       -0.50330048919069        0.12808415818088
C            1.46138728604287       -0.49651944833568       -0.76614376484192
C            1.27119016514837        0.03309278807148       -2.02895755607159
F            2.31502332181884        0.04843009751142       -2.85946212137724
C            0.06086094348896        0.58503014744544       -2.45257625054944
C           -0.09482153589005        1.11519902999914       -3.83594471058666
O            0.43100577705933        0.65100505850067       -4.80720384428928
O           -0.92787738937879        2.17550467329620       -3.82158661076057
C           -1.31674849334589        2.86909010964076       -4.94083708493274
C           -0.59870218325972        2.92032375996463       -6.13229770383160
C           -1.08187872540229        3.68427311883218       -7.17705947187225
C           -2.26711286012647        4.39271968188205       -7.02804744834334
N           -2.76307541534708        5.18781367729655       -8.12214558602872
O           -2.12355858608583        5.19070800476813       -9.15196996921265
O           -3.79021735433267        5.80800796515596       -7.94569485176787
C           -2.98344500086846        4.34879996499313       -5.83555592104678
C           -2.50605197865850        3.58681036888244       -4.79369341095728
C           -0.98072815162641        0.56855222005431       -1.52200787767625
F           -2.18332452405821        1.05316718801459       -1.86048972775351
C           -0.83354006700689        0.03581978190582       -0.26147087002109
H            4.95334646343639       -4.14203802204438        3.50315144095977
H            3.72463603923500       -4.91170385517391        4.53814402218872
H            4.53808256181636       -3.41240591005094        5.07432950880816
H            2.43600340730235       -3.68097949657168        6.03800728513022
H           -1.44323954756707       -2.66713876892421        9.15887061610393
H           -2.05610854360657       -2.82465819823449        7.49875131084974
H           -1.23311301554233       -1.31755905111523        8.02281777369396
H           -1.24964353206609       -1.55544630608843        5.69232082922745
H           -0.72159744952700       -1.01428542130226        3.38073927711454
H            2.42380100319783       -0.90245266894913       -0.50181364746223
H            0.31864603816259        2.36719388913308       -6.24563718146071
H           -0.54760764687983        3.74143345146018       -8.11307247546380
H           -3.90112784630973        4.90978418292246       -5.74841152005403
H           -3.03298155224965        3.52323814332447       -3.85523348616970
H           -1.66526693613053        0.03155370779780        0.42364947284294
