48
 energy: -103.814867286614 gnorm: 0.000364478156 xtb: 6.7.1 (edcfbbe)
C           -2.38619764545534        2.20060282887424       -8.67807433054044
O           -2.81712622233469        2.98033443672533       -7.58191934337216
C           -2.36397448453227        2.68646315799910       -6.35308740174830
C           -2.82915716772061        3.49936276797562       -5.31415387539868
C           -2.40655448157209        3.27390248421687       -4.02475463962000
F           -2.88893321634638        4.05683859169777       -3.05715178295630
C           -1.52855856979322        2.23670676182544       -3.68911744551199
C           -1.06827323470857        2.04994770558215       -2.28479987570731
O           -0.86402708949294        2.94453448297122       -1.51349871492526
O           -0.89950099074294        0.73809351548240       -2.03368526637640
C           -0.43412741038367        0.24664110819098       -0.83368317033511
C           -0.60433520065782        0.87257022025610        0.39512431292803
C           -0.11413599267807        0.24824816332504        1.52282090807403
C            0.53193636771107       -0.98545960216098        1.46342492071623
C            1.03830507457412       -1.63608343226544        2.68222720514469
O            1.46208108819161       -2.75464099873026        2.77576232775800
O            0.98283701878441       -0.76318691980470        3.74112604381882
C            1.33661682166052       -1.08750477686148        5.01617404664807
C            1.39045590408477       -2.38035239853282        5.53758668711651
C            1.72510982827943       -2.56045072845357        6.86237678039108
C            2.01253391135467       -1.48153243351961        7.69409250641182
N            2.36863139560679       -1.74152277344646        9.06872101595509
O            2.11798346887908       -2.84875250423325        9.49564596187237
O            2.89688718623807       -0.85841736919053        9.70153291966867
C            1.94595472940348       -0.19087986028451        7.16402090678532
F            2.17513916125145        0.88340452442404        7.91769094256086
C            1.60830356902122        0.00499259265281        5.84060190438735
C            0.68889752282886       -1.62347348546282        0.20903339211956
O            1.31584529841981       -2.80551255338595        0.18838126029660
C            1.50662171198744       -3.46823465602563       -1.04194513835927
C            0.19903323789576       -0.98598114854494       -0.92669028942792
C           -1.09216922009289        1.44250005541782       -4.74690586852447
F           -0.22494747705950        0.44488143479056       -4.51713117679494
C           -1.48234028994147        1.64807944074210       -6.05612099806534
H           -2.88259940313448        2.62318400287889       -9.54941032476374
H           -2.68218657004483        1.15413896263023       -8.56380116410029
H           -1.30271307651350        2.26501665069263       -8.81109791378884
H           -3.51468193908781        4.30149708986681       -5.53072689184968
H           -1.09900995193246        1.82573961314107        0.46791928750368
H           -0.23965974573869        0.72244025281940        2.48249672508265
H            1.18411823190671       -3.23153894001273        4.91147936491738
H            1.77257723659078       -3.55229187220935        7.28617986872945
H            1.55311995276820        1.00592597038513        5.44410709600476
H            2.03427032535438       -4.38722543299924       -0.79390313705045
H            2.11537822588064       -2.87251946479390       -1.72842293827721
H            0.55205479827652       -3.71383538001645       -1.51651213375899
H            0.29552088860277       -1.42055194604049       -1.90782294660989
H           -1.08498357558811        0.99388186141240       -6.81411961702831
