39
 energy: -55.172521483015 gnorm: 0.000376387824 xtb: 6.7.1 (edcfbbe)
H           -7.44731985510566        1.41533632972330       -3.45805341096391
O           -6.49298865279890        1.30695476413707       -3.39808705827846
C           -6.14477202504928        0.97301466510510       -2.07172062056528
H           -6.46645697281409        1.76496485550037       -1.37882894323343
H           -6.63503255184755        0.03524056886132       -1.76988883074907
C           -4.63028134015787        0.80969822614937       -1.99986672215546
H           -4.33404602496403        0.03923882840280       -2.71333528618215
H           -4.16805068791892        1.74656558402431       -2.31480491762121
C           -4.16041291519335        0.43660941973057       -0.59770296317703
H           -4.48026828571427        1.20669247821360        0.10873257723450
H           -4.62904778563824       -0.50324629035863       -0.29553189597591
C           -2.64271501790717        0.29013020254791       -0.53375588555175
H           -2.31895905292945       -0.47576629080346       -1.24180304603790
H           -2.17302795326386        1.23093536562654       -0.82878414330660
C           -2.16315255988318       -0.09068687067599        0.87238872011679
H           -2.49587203234671        0.67035680105208        1.58149330061689
H           -2.61238373877942       -1.04387222984805        1.15845036550864
C           -0.66736518519882       -0.19797862540445        0.90231913184806
C            0.11816723735742        0.92346882950996        1.14013346574106
H           -0.35798755724311        1.87340443952128        1.33749361125360
C            1.49628821546395        0.83992052924144        1.13064101117000
H            2.08799158381092        1.72743166525354        1.30205566357587
C            2.13215639493769       -0.37209674580924        0.87017746776886
C            3.59758823656471       -0.46247379977394        0.85557045466010
C            4.36054362357702        0.21647442284184        1.80660795162280
H            3.86421315383387        0.79608814239127        2.57088695052604
C            5.73690268702841        0.13579152077366        1.79895254073046
H            6.32296310846141        0.65817283246092        2.54102892996082
C            6.38149408395531       -0.63048177442404        0.82654855983773
C            7.79140007998806       -0.71391077733286        0.81126222408525
N            8.93627665714587       -0.77957131457937        0.80025578489990
C            5.62935008425945       -1.31300308032012       -0.13082876391339
H            6.13287693925705       -1.90087225883784       -0.88446190818081
C            4.25337753637201       -1.22756032998698       -0.10987583195145
H            3.67516873959248       -1.74260280011552       -0.86266596112514
C            1.34521847535839       -1.49516449405333        0.62516205819128
H            1.81819279342367       -2.44934785174979        0.44328081083317
C           -0.03296067407393       -1.40686126823776        0.64468598307547
H           -0.62707876155780       -2.29097366876040        0.46190862570935
