63
 energy: -106.975421394178 gnorm: 0.000223616314 xtb: 6.7.1 (edcfbbe)
C           -4.01426401973803       -3.03662872561512       -4.89355874862028
C           -2.68958080317341       -2.51703859287729       -4.34718802580714
C           -2.79317939228558       -1.11832693936246       -3.73691782044236
C           -3.57867174623886       -1.10159496410118       -2.42733486450723
C           -3.71621080978711        0.29646585433856       -1.82231723922994
C           -2.39123114809506        0.85107277444707       -1.30398071461880
O           -1.88567868694554       -0.07661102516718       -0.36123662636198
C           -0.70160191434307        0.12673233168674        0.21942514252693
C            0.07388911783105        1.26828444445791        0.03761400533160
C            1.28267827861923        1.42059005937194        0.70490647451606
O            1.92919726715421        2.61494644496292        0.48325430012757
C            3.28260029952332        2.72460612405271        0.50381910612591
O            4.03268513894616        1.79105035541555        0.63665616001069
C            3.71028250061601        4.12180358994505        0.31665962036317
C            2.80494278354689        5.17916171979552        0.20007295228011
C            3.26272417367420        6.46408123257709        0.03365004177181
C            4.63600331429354        6.73246317156623       -0.02120278106185
O            4.97389406181247        8.03095546948835       -0.18647170465374
C            6.33799611539328        8.38001111517443       -0.24894112900884
C            5.54161169659668        5.67822653976863        0.09504211130518
C            5.07611756385315        4.39035446750442        0.26215611942634
C            1.74104169979999        0.44212535872926        1.57942797792485
C            0.98136733065250       -0.69456174358978        1.75715228495276
C           -0.22835939102116       -0.88163280239408        1.09252513813016
C           -0.99827776260164       -2.12555113186606        1.26110602791706
O           -1.87355934759594       -2.52844881146954        0.54364771773012
O           -0.58273356288513       -2.78489542216714        2.38503748546394
C           -1.06363721275609       -4.00312998902713        2.77732352432870
C           -1.62692486785624       -4.95082548787891        1.92488163616410
C           -2.03579897301450       -6.16586712951484        2.43706250344262
C           -1.87834621471702       -6.43825640490941        3.79019868773033
N           -2.30400614483094       -7.70740798392682        4.31539016883346
O           -2.80026922777168       -8.50060502463771        3.54329209953228
O           -2.14104882169602       -7.91012647126878        5.50071785650785
C           -1.30883626268655       -5.49918627419117        4.64542538311010
C           -0.90409815497897       -4.28656703868156        4.13752790519811
H           -3.86879861701231       -3.99704240217450       -5.38294967591478
H           -4.42505347807312       -2.34053341247240       -5.62218413734474
H           -4.74113506082162       -3.17126573210274       -4.09724826992346
H           -1.96243261459685       -2.48867071115261       -5.16271909696123
H           -2.31180110842990       -3.20756084581235       -3.59051248362651
H           -3.26735862833646       -0.44553856860116       -4.45698003186148
H           -1.78053161024774       -0.75234041942345       -3.55597876061757
H           -3.08997007592656       -1.74692099414085       -1.69642699319178
H           -4.58220163623760       -1.48958786125594       -2.60490125116457
H           -4.41171342509501        0.24615045685597       -0.98330193425674
H           -4.11638581026204        0.99389588539174       -2.56103670934593
H           -2.55507494796785        1.82678353717781       -0.82590621942099
H           -1.67640850471542        0.97922346495561       -2.12599797495593
H           -0.24219790742612        2.06183925997334       -0.61943007544020
H            1.74545103196361        4.98305442520680        0.24346288638291
H            2.57967057684853        7.29371181638130       -0.05739184568186
H            6.35836401793692        9.46029384499152       -0.38196806655420
H            6.83552157102197        7.90144849684034       -1.09784172415321
H            6.86095674102063        8.11944500476426        0.67616406677161
H            6.60494722934780        5.85301626409647        0.05690639067050
H            5.76719154567062        3.56612692112360        0.35353725945200
H            2.67670174737264        0.56242845735522        2.09776738316358
H            1.33390999150892       -1.46711716624815        2.42146983756848
H           -1.75125718970407       -4.73702303562939        0.87685750421822
H           -2.47644345532025       -6.91520971309884        1.79744523992909
H           -1.19589842854190       -5.73695004735667        5.69190400509759
H           -0.45880883127887       -3.53733601630161        4.77242790072073
