33
 energy: -48.843976320298 gnorm: 0.000096430489 xtb: 6.7.1 (edcfbbe)
H           -3.88980645973581        0.33874093280652       -4.04115334042737
O           -4.15014106253880        0.76920149450537       -3.22081759213183
C           -3.65164081165921        0.02753713997984       -2.12813366250803
H           -4.06843754111323       -0.99109252253421       -2.13430039824014
H           -2.55574380178587       -0.04833416781730       -2.18095522111529
C           -4.05913666540171        0.74300538326698       -0.84458534969182
H           -3.63628743118052        1.74836602238146       -0.86322985640616
H           -5.14597458583602        0.83688726587576       -0.83589291887246
C           -3.59181692773925       -0.00243762202090        0.41024477490272
H           -3.98795059129994        0.51522060926714        1.28642327630090
H           -3.99825559771866       -1.01577546993500        0.39955662254523
C           -2.09379874824636       -0.05343542150489        0.49457934806471
C           -1.37378723613978        1.06763446465206        0.89191348443683
H           -1.90353085898081        1.96718247525861        1.17097320943241
C            0.00570756802844        1.04555238666188        0.94032889887270
H            0.54409033830904        1.92174433565830        1.27126917401238
C            0.71018823795089       -0.10736701884901        0.59895299196573
C            2.17732007028991       -0.13612694978957        0.65314074360015
C            2.92616537285861        0.95719410457792        0.21561888771585
H            2.41926560011501        1.82428762945256       -0.18118603180139
C            4.30410395059187        0.93463534099212        0.25950020901853
H            4.87951547205698        1.78107326167767       -0.08601238287048
C            4.96412483989965       -0.19263422521682        0.75111904281446
C            6.37554682620968       -0.22286062286243        0.79898403153892
N            7.52145694849299       -0.24803707837004        0.83730067138610
C            4.22599470792526       -1.29100339937807        1.19486782000942
H            4.74107966559544       -2.15930254199110        1.57916236565160
C            2.84861523076094       -1.25769765190460        1.14196851949787
H            2.28039320445261       -2.10255316478752        1.50198074789658
C           -0.01064104449768       -1.23283837179247        0.20690883239804
H            0.51593756035349       -2.13121505651654       -0.08104063922493
C           -1.39078916074378       -1.20176875108847        0.15255738856643
H           -1.93174706927177       -2.08377281065757       -0.16003364733783
