69
 energy: -113.304633038553 gnorm: 0.000735170125 xtb: 6.7.1 (edcfbbe)
C           -0.25404170196539       -5.52551823023015       -0.62795469122181
C            1.21605162221367       -5.15402313970641       -0.78326012108296
C            1.83709395993776       -4.59975097850852        0.49931914457092
C            1.27747932999819       -3.23710058155591        0.90238146775557
C            2.00583587921308       -2.65968636767766        2.11375284828498
C            1.44654419630372       -1.29755208785330        2.51382754559121
C            2.19315680025899       -0.69232885760249        3.70104198193462
C            1.68982025246619        0.72066900307056        4.00290221863734
O            1.83590684144108        1.58396911482174        2.89270893698520
C            3.05477461009524        1.98461925190909        2.47809913064246
C            4.19767118165213        1.91959226720326        3.27439783403653
C            5.42319831305873        2.38279625886608        2.81282840794697
O            6.56946192136895        2.36051539222410        3.53036255044603
C            6.55362413712458        1.84990389891254        4.84279057525630
C            5.52220736863233        2.91321865556456        1.52121423000703
C            4.40598593492047        2.96785067131108        0.72880016115602
C            3.16071935861614        2.51314340061623        1.17570066692762
C            2.05583991181321        2.58001127455373        0.20726772747817
O            2.19985357886131        2.87257573989390       -0.95555433400096
O            0.85313847147232        2.29512245918226        0.76107129020936
C           -0.29595701929964        2.16813321120208        0.02827460846509
C           -0.34044077076835        1.67996534248214       -1.27442584875919
C           -1.55911497564954        1.53121057503045       -1.90624474097637
C           -2.74217921826592        1.86236717607081       -1.24923701112443
C           -4.06595498974330        1.72730811339539       -1.88382546344027
O           -5.10628117130040        2.06926488488280       -1.38471758997948
O           -3.97196833346456        1.13130865446907       -3.10346576365425
C           -5.05691244555374        0.93256680731455       -3.91734052035257
C           -4.98663613656766       -0.18467165657664       -4.75217684772116
C           -6.00516456230611       -0.44761072182335       -5.63999032206330
C           -7.09889623210260        0.41074224477446       -5.69329899121355
N           -8.16806972923683        0.13777791202122       -6.61770458481734
O           -8.06797443619275       -0.84694596422471       -7.31872147723095
O           -9.10210930190881        0.91030971798087       -6.64392680468257
C           -7.17093473099654        1.52780899047211       -4.87071385782059
C           -6.14887244439524        1.79450550373147       -3.98188662506859
C           -2.68901409904746        2.34524853782958        0.06011712937659
C           -1.47770994034287        2.49418649829984        0.69511186689109
H           -0.62475135543331       -5.98610901386980       -1.54088821979510
H           -0.86021980886033       -4.64709363353752       -0.42260807554949
H           -0.38304606904886       -6.23284137521716        0.18854231606717
H            1.32150490724513       -4.41576640034535       -1.58149886533780
H            1.77387119223174       -6.04467435893337       -1.08222552585430
H            2.91590202464778       -4.50454085915228        0.35159714399658
H            1.67794770135710       -5.31132348930494        1.31301227472341
H            0.21583730409285       -3.32756812247131        1.13739259390675
H            1.37483498593059       -2.54508025507447        0.06232536996641
H            3.06904172602578       -2.56008835758671        1.88088138905668
H            1.91562797227406       -3.35130961451066        2.95506134495825
H            0.38830874924791       -1.39661767186124        2.76598796286736
H            1.51920707368932       -0.61336023971357        1.66571479209424
H            3.26089531300300       -0.65753413374157        3.47244850534878
H            2.05524718226283       -1.31070090333751        4.58983248384095
H            2.17346210059355        1.13147085222437        4.89774946268811
H            0.61084453652607        0.69953450569070        4.17777073701849
H            4.12305419562731        1.51450203619973        4.26960231735408
H            7.57625657058192        1.94047522807033        5.20484996981717
H            6.25731369341151        0.79631210624824        4.86133650084434
H            5.88920472458695        2.42929991536991        5.49142564369866
H            6.48077427958903        3.26502351854458        1.17841809871657
H            4.45924213766092        3.36360217823629       -0.27371594876110
H            0.57148148350777        1.42821072378103       -1.79044487374350
H           -1.59479436157243        1.15639113440344       -2.91685355943394
H           -4.12550366342756       -0.83003156846307       -4.68531448135670
H           -5.97487250836590       -1.30636499481280       -6.29253904806521
H           -8.02914376559537        2.17836920510255       -4.93980447715620
H           -6.20105424763365        2.65788453493690       -3.34010708028869
H           -3.61299800404694        2.59756235867302        0.55734286046104
H           -1.41359750049705        2.86084372213259        1.70718366048772
