53
 energy: -63.703416782919 gnorm: 0.000091990476 xtb: 6.7.1 (edcfbbe)
H            2.15629719050772        7.55689857475569        0.58515636974253
C            1.58348308448014        6.64113048223170        0.58971542952086
C            0.21127552210883        6.68425842325726        0.34593057070707
C           -0.42732268958571        7.91861691853587        0.09255850762949
N           -0.94703450700252        8.91977383212108       -0.11416251269850
C           -0.52943857139220        5.50183491655492        0.35187266956676
H           -1.59249875311592        5.53769531592133        0.16308198334598
C            0.10041384149326        4.29963396885650        0.59715095097589
H           -0.48653842340697        3.39352852914272        0.59765183134113
C            1.47041200429491        4.24149478330868        0.84130538392470
C            2.15876687015358        2.92893043044175        1.09957784308117
H            3.22246295474316        3.12452425761104        1.27866077689532
C            2.04802150194835        2.00122898298796       -0.11613970766820
H            0.99875465635937        1.82134072962987       -0.35086595400483
H            2.49816013575391        2.48875780550518       -0.98450735126963
C            2.75682466667077        0.67680310620083        0.14967097315192
H            2.66801804220331        0.03257119501948       -0.72589580789294
H            3.82131658468757        0.87177081083524        0.30410082000404
C            2.21218340074803       -0.03895907656339        1.39030677490927
H            2.85755687342438       -0.90301097332579        1.59102748002131
C            0.78545785219952       -0.57193482177977        1.21187986803440
H            0.42491681557097       -0.91610598229612        2.18489705430361
H            0.11984992190028        0.22610393998162        0.88294481253748
C            0.68497671400546       -1.73119512295188        0.22269061667922
H            0.99690933977861       -1.40223799325700       -0.77026015114876
H            1.35777054522888       -2.53451004557024        0.53218586993128
C           -0.74155403129294       -2.26934185404704        0.13594033139421
H           -1.05311634231814       -2.63173745740079        1.11853026610259
H           -1.41606033307652       -1.45584878903198       -0.14322615029041
C           -0.87318267652324       -3.39803788913334       -0.88332537777222
H           -0.54921187360895       -3.03851171972502       -1.86313104140135
H           -0.21313096547507       -4.22127007777898       -0.60004694266210
C           -2.30782455334472       -3.91021705688515       -0.98491359106539
H           -2.62793627248068       -4.28374563495229       -0.00920814227923
H           -2.96744822521322       -3.08072489118103       -1.25174837404969
C           -2.45256271494106       -5.02008659002894       -2.02281470963583
H           -2.12687692398927       -4.64738489020890       -2.99705561419675
H           -1.79982772613097       -5.85414754620297       -1.75418325118994
C           -3.89098065002758       -5.52026318032456       -2.13153692538041
H           -4.21522442258514       -5.89888636508572       -1.15939639914843
H           -4.54356266769102       -4.68432151007464       -2.39423451347444
C           -4.03301527842691       -6.62004914973736       -3.17641728074926
H           -3.73433524022991       -6.25519858619725       -4.15688356191638
H           -3.40414104268478       -7.47077836505564       -2.92277950318528
H           -5.06394615928643       -6.96114638757404       -3.23672996100166
C            2.31184150223491        0.90981688835731        2.59070578435018
H            1.89446190430907        0.42876840753620        3.47788765314999
H            3.36684762969894        1.11363552023791        2.79133575072071
C            1.59245882107522        2.23230939532183        2.34217631687585
H            1.71577724102580        2.88514701726998        3.20986487628776
H            0.52479982673015        2.05276982726394        2.21593571184315
C            2.19639071032904        5.42844718400717        0.83357969250397
H            3.26035489021224        5.40187071344949        1.02114985455143
