57
 energy: -78.391911919528 gnorm: 0.000097325356 xtb: 6.7.1 (edcfbbe)
H           -4.78059160961437       -9.29816199085471        0.36709073074088
C           -5.20689316732819       -8.37757934746932        0.73841943794001
C           -4.44811253597233       -7.22857736375052        0.80366194617933
H           -3.41394750723018       -7.25511125281302        0.49394774710424
C           -4.98979260563893       -6.03665993050607        1.28854567149258
C           -4.17817845597494       -4.81620922935306        1.34971086755840
C           -3.28828338987301       -4.49988480362474        0.32850046637316
H           -3.20745114643496       -5.15015304284288       -0.53029344033241
C           -2.52445193571168       -3.34818330368331        0.36829335097880
H           -1.85572877814956       -3.13703141625965       -0.45121662870261
C           -2.62733256566904       -2.48051578458631        1.45170880576289
O           -1.92736012470002       -1.32790776350334        1.59878404531948
C           -1.01097255139034       -0.95396818332902        0.58991345159586
H           -0.23874187090925       -1.72763783577675        0.47466317533337
H           -1.53318960656179       -0.83537680616117       -0.37006512381074
C           -0.36677561155542        0.36670291275662        0.99621139245889
H           -1.15155717520057        1.11301811479009        1.12919258103183
H            0.13206939023516        0.23308146189721        1.95733152893746
C            0.63406875766976        0.83843219566783       -0.05443386977686
H            1.40725136877255        0.07727273961655       -0.18379025377066
H            0.12266054481539        0.95443851972645       -1.01310578680224
C            1.29174931351487        2.16232685258525        0.32663256301100
H            0.52121134108733        2.92526156079445        0.45698913499760
H            1.80902857680542        2.04846265667726        1.28166461875085
C            2.28581327191766        2.62226061643029       -0.73709225572498
H            3.05360652949819        1.85601639418138       -0.86726522147291
H            1.76561942419221        2.73181569948816       -1.69166430899766
C            2.95444410743840        3.94600426950210       -0.37520972263190
H            2.18879739075148        4.71396668117707       -0.24248446302142
H            3.48105476111344        3.83748768455624        0.57566745989487
C            3.94027243627367        4.39446538895226       -1.45136057807649
H            4.70381981518520        3.62452408020974       -1.58347577625010
H            3.41159626320910        4.50008292050045       -2.40171867310069
C            4.61688321419697        5.71748579773462       -1.10187774930509
H            3.85557959433500        6.49079931064943       -0.97276247654211
H            5.14537604675967        5.61255955647206       -0.15168969292010
C            5.60178221817333        6.15201336785425       -2.18379714705738
H            6.36617638192697        5.38265461112045       -2.30913781214856
H            5.07282759089752        6.25437421564598       -3.13462985952289
C            6.28328865719957        7.47542248268804       -1.84089819532798
H            5.53983666904970        8.26935752440577       -1.74991469569101
H            6.80294049730985        7.38241383230735       -0.88522078211305
C            7.28898474995480        7.88730949109215       -2.90563676585103
H            6.83970515914577        7.89166108505542       -3.90433488327338
H            7.72801719209267        8.86671981285273       -2.68868292787529
F            8.33449610046447        6.99484771641184       -2.95268588530090
C           -3.51432354967427       -2.79485830189223        2.48489244349759
H           -3.58172025520308       -2.11919762244525        3.32292144833859
C           -4.27836869577938       -3.93777138429178        2.43021028421454
H           -4.94449715255509       -4.16983980195122        3.24790003892084
C           -6.32079751808692       -6.02872779785784        1.70960511510542
H           -6.75847369720143       -5.10966926443345        2.06989986072832
C           -7.09116936251803       -7.17021818051677        1.64618301600383
H           -8.12270763196971       -7.15620895598277        1.96676349689222
C           -6.53782129126985       -8.35540605492431        1.15869451657652
C           -7.32154255779480       -9.52805707295739        1.08937991860539
N           -7.95819501402654      -10.48034706203472        1.03105586106595
