58
 energy: -116.782607255543 gnorm: 0.000212430848 xtb: 6.7.1 (edcfbbe)
C           -2.46943059696732        7.58291000106402        2.80588261611787
C           -1.87104971102251        7.87922231885210        1.43603389698949
C           -0.72373403990416        6.92439593503497        1.11507396373123
C           -0.06308734427478        7.20794588099457       -0.23743800315432
C           -0.93284444564970        6.71711345457233       -1.40186790541258
O           -1.02585571264492        5.30453122419847       -1.40049445237314
C            0.23087700786532        4.70003234146606       -1.47846616958585
C            0.06788554784018        3.19852317068192       -1.47529333200309
C           -1.14227453033837        2.62459356189739       -1.83377236646543
C           -1.26088688849809        1.24767603367831       -1.84226163106975
F           -2.44144460679620        0.71170578965329       -2.16471976511530
C           -0.20547310174779        0.40483630395818       -1.49092001666589
C           -0.36479314778025       -1.07815822408724       -1.54664416333630
O           -0.97565115117559       -1.66579763633072       -2.39317993665154
O            0.29710053270509       -1.64492865589662       -0.52069972486151
C            0.35394060620229       -3.00624104720095       -0.32876126832755
C           -0.66082083888340       -3.89055965800804       -0.67361756463564
C           -0.51361995153876       -5.23474655348103       -0.38965404711536
C            0.62933195419527       -5.73759403040730        0.22960068340732
C            0.76302881391222       -7.17177215428814        0.51929237683848
C            1.96823380919318       -7.83720005418417        0.30506796631114
C            2.06890275824103       -9.18633120789728        0.58354271231523
F            3.21911109001838       -9.81211329507005        0.33772173244813
C            0.98369103888199       -9.91736859365726        1.06652467744367
N            1.09629023437652      -11.34068688822336        1.34793083950199
O            2.06741971141922      -11.69825133312851        1.96602160453578
O            0.20802894562804      -12.04599025447336        0.93824083783268
C           -0.21532072168951       -9.23430382638664        1.26944782626240
F           -1.26537591880200       -9.88778096759964        1.76804853796178
C           -0.33137492893896       -7.88401522458884        1.00813693303715
C            1.62580832803493       -4.81886168366588        0.56430400432770
F            2.73772528651949       -5.24008844496537        1.19314251308240
C            1.50311122897601       -3.47120221163178        0.30200081923055
C            0.99209513551072        1.02211999202877       -1.12792319526111
F            2.05117329011967        0.26657325650753       -0.80681237711955
C            1.14252481905646        2.39484852575515       -1.12137938454327
O            1.06968271144001        5.06194858280591       -0.41808433698246
C            1.27168731719161        6.46155401336940       -0.36233979242995
H           -3.28342585777786        8.26992834707529        3.02431266053018
H           -1.71544208513673        7.68604573951639        3.58311761615858
H           -2.85820853567690        6.56778625939582        2.83919924470820
H           -1.50143200189046        8.90746431107348        1.41559641960231
H           -2.65292678292885        7.79241592001006        0.67962279172857
H           -1.08852810181586        5.89549759614306        1.11536262103272
H            0.03235039321244        7.00879549689934        1.89909839370823
H            0.11778814673672        8.28092511921032       -0.34845787611022
H           -0.50162539303109        7.05564448668086       -2.35775393271578
H           -1.95834691257623        7.07796297752999       -1.32648770543576
H            0.71695714298886        5.01020068072525       -2.43819871262036
H           -1.98522290050894        3.24324647686197       -2.09264250354247
H           -1.55199441686521       -3.53718280115774       -1.16475759987260
H           -1.29593885369623       -5.91972224478036       -0.67667392331678
H            2.83253885807223       -7.32415509751458       -0.08402869160946
H           -1.27005526111170       -7.39359684096059        1.20920240298132
H            2.28515745755465       -2.78310616062960        0.57901032302464
H            2.08209000252404        2.83349758023676       -0.82901044079182
H            1.79930248993245        6.79118558325204       -1.27241289778645
H            1.91235008131529        6.63057812910206        0.50419670205584
