70
 energy: -155.718861947525 gnorm: 0.000498741007 xtb: 6.7.1 (edcfbbe)
C           -8.35026312189807        4.83588022522699       -8.86351784416194
O           -7.83854008961298        3.52350282803181       -8.82854466500991
C           -6.97094588083948        3.17365938628293       -7.85585941264739
C           -6.51164157849174        1.85154652506689       -7.89269840534441
C           -5.63134580599875        1.41823836412203       -6.93758569212863
C           -5.17280963243511        2.25877430473246       -5.91551212516401
C           -4.24086479015223        1.65479970890201       -4.95627443239714
O           -3.82211573122052        0.52702692353653       -5.04849194214662
O           -3.91568793281773        2.50347153558190       -3.94275452563592
C           -3.08761803297332        2.20970754983774       -2.90793628259110
C           -2.33783191508986        1.04615186012576       -2.76398973013957
C           -1.53545893807816        0.90185036022386       -1.64835975552962
F           -0.85107038408690       -0.24199545473770       -1.52390363186478
C           -1.44149136611065        1.86718187338364       -0.64519399356316
C           -0.62767977360086        1.66783573548504        0.58440338803666
O           -0.93860515728822        2.04069764823828        1.67974289759347
O            0.51170640487841        1.01164391784644        0.27655564087118
C            1.38063438253222        0.52449927287793        1.21803180870116
C            2.68227899994796        0.30533328192969        0.77710971654334
C            3.59930631873610       -0.26015951842976        1.63712275860196
F            4.85132958542612       -0.44705899997850        1.18533206466504
C            3.28931522028630       -0.62290861733502        2.94897117548727
C            4.26865223420172       -1.25888964960415        3.84597559646541
C            5.06456325088948       -2.30415480530260        3.38153231198675
C            5.96463694329439       -2.92491877922973        4.22384203867529
C            6.07217747985722       -2.51062694214715        5.54532131255132
C            7.07014626306162       -3.19072033302380        6.45239434550034
F            8.28574148816083       -2.60227101300897        6.34004270392441
F            6.72998843615309       -3.02343366964313        7.76530598180323
O            7.30021839251466       -4.52011180811464        6.19467434025374
C            6.26047684882002       -5.40786000341402        6.15782400500100
C            6.56874924004897       -6.66484094635339        5.64423285897206
C            5.58872390649072       -7.63399887719376        5.57585443381237
F            5.89269909404474       -8.83707061547029        5.07897508286015
C            4.28948090569356       -7.37779288770456        6.00600765932244
F            3.34161109208190       -8.31900504837768        5.92801335995830
C            4.00636147649824       -6.11866364806858        6.51988608389038
F            2.76989635063328       -5.84404750999486        6.94586634431999
C            4.97485759903528       -5.13213484321960        6.60431104091781
C            5.29862660776013       -1.45684324508804        6.01346765501346
C            4.40065130355539       -0.83675677402880        5.16656541597727
C            1.97674743028679       -0.36782378571046        3.34541215690619
F            1.59577821673571       -0.71256189344673        4.58628781685069
C            1.02121832829563        0.18838151651050        2.51604287123813
C           -2.21116017144935        3.02041681690055       -0.82562580263401
F           -2.14663644258251        3.99916992128785        0.08084409855157
C           -3.01250382805776        3.20466907201271       -1.92981514838594
C           -5.62886483281642        3.59289386924321       -5.87950890264512
O           -5.16739102449865        4.39482115116659       -4.89851301639449
C           -5.59057285577868        5.73730095515386       -4.83562627736526
C           -6.52411586475714        4.02858663870499       -6.85430266991775
H           -9.02010759899372        4.86615104526419       -9.72102828563385
H           -7.55387704647270        5.57356916909733       -9.00232202765763
H           -8.91559721861544        5.07097386395777       -7.95648515539324
H           -6.86536323345055        1.20231997037389       -8.67581717758125
H           -5.26532611667850        0.40329324664424       -6.94519279595852
H           -2.37776976260736        0.25502322811791       -3.49455030826870
H            2.96603089286472        0.56425612215264       -0.22941522612005
H            4.97279601722611       -2.64100519002176        2.36117038951854
H            6.58298896517204       -3.73090332181480        3.85876942527137
H            7.56905671920055       -6.88021814290520        5.30779102793764
H            4.69751434756818       -4.18122495698475        7.02824318905433
H            5.39652968753548       -1.12923072334608        7.03697819211171
H            3.80504738402628       -0.01600441346481        5.53364674966686
H            0.02440118937615        0.34711786191001        2.89236894405233
H           -3.58789111570262        4.10789504781247       -2.04532560999764
H           -6.67092692483308        5.81315930275292       -4.67828516799834
H           -5.30863829888387        6.29302125704575       -5.73520695887443
H           -5.07433388158727        6.16451392667290       -3.97749241783408
H           -6.87588265448530        5.04590113295295       -6.82978149581652
