59
 energy: -126.403674716884 gnorm: 0.000142618252 xtb: 6.7.1 (edcfbbe)
C            4.09390737294927        0.18199539313540       -8.44153554721996
C            3.75893646433759        0.23232835979401       -6.95509761928668
C            2.25605543094212        0.21603925035240       -6.67473711850274
C            1.55646272689507       -1.10042222380969       -7.02907284410438
C            0.03245944451051       -0.93304363129133       -6.96773653878633
O           -0.40337394947830       -0.70787125299085       -5.63992739937427
C           -0.01265209346084       -1.74275840544749       -4.78238282825044
C           -0.51680379584808       -1.42979044926435       -3.39352210841272
C           -1.77002369059346       -0.85561943048942       -3.23471899453297
C           -2.23249931485418       -0.58243030108393       -1.96193810472878
F           -3.43051294503872       -0.00815563244781       -1.82828431471917
C           -1.47664675020296       -0.85268773989552       -0.81886428324641
C           -2.02196935769902       -0.56995132292544        0.54009306830425
O           -3.16498045965233       -0.72241672821011        0.86224247817862
O           -1.02610260599999       -0.13310446117816        1.33924234812075
C           -1.16750652407346        0.17170319829870        2.66601942040237
C           -2.37496108231327        0.38167461855972        3.31905902525623
C           -2.35249808688384        0.70072532889191        4.66443240594535
F           -3.52934943906208        0.91581261113467        5.27073865329102
C           -1.17940026360684        0.84152861257559        5.40592064011547
C           -1.18807217859634        1.19008542132244        6.83567747959334
C           -2.07018679635159        0.56045317705733        7.70794116671711
C           -2.06951857620271        0.89014946207283        9.05087092261709
F           -2.92591196034157        0.25474447772766        9.85172130466640
C           -1.20362958612061        1.84947699532261        9.56961399937707
C           -1.15881588128486        2.25187759097612       11.02235855467671
F           -2.02419758395429        1.59425101218724       11.79321044662730
F            0.05736223039781        2.04405796721789       11.55320200340049
F           -1.42654368009325        3.55901365729052       11.17864454427555
C           -0.33152448561465        2.46720712512318        8.67197061695913
F            0.51034935236027        3.39841867212364        9.12550645565930
C           -0.31103140286856        2.15305648860857        7.32860001109820
C            0.00725909465089        0.62950846941137        4.69928280117885
F            1.17772718235483        0.72447520763438        5.34856003770422
C            0.03274592886603        0.29558751789439        3.36320857644716
C           -0.21980721624705       -1.42345975339408       -1.02289519580699
F            0.54336577014865       -1.73160122140020        0.03457291849849
C            0.26241083314606       -1.71824830877624       -2.28325589915913
O            1.37247578307246       -1.91829471899952       -4.74699768399904
C            1.90091062752405       -2.21011001931688       -6.02807842485979
H            5.16610832946752        0.28828372377421       -8.58807884347680
H            3.59485937731428        0.99005735939765       -8.97179556889765
H            3.78719258736466       -0.76182662249431       -8.88544878261044
H            4.16761877633141        1.15431695894962       -6.53609532957146
H            4.24607210984997       -0.59966555813227       -6.44395909072283
H            1.78658852677632        1.02310562659529       -7.24187304374007
H            2.08484056846674        0.41265983802513       -5.61441897902471
H            1.83283438852515       -1.42261132143055       -8.03525588935985
H           -0.45840502404466       -1.83673530105813       -7.36465721271333
H           -0.30222846786924       -0.06454499415554       -7.53650461959357
H           -0.48462407948832       -2.69464024133127       -5.13495978206671
H           -2.37400462745861       -0.60920049818545       -4.09214872962778
H           -3.32184246483291        0.29643090430246        2.81181355737838
H           -2.75960433667900       -0.19344869760966        7.36410218432981
H            0.38271630475349        2.66831174180092        6.68468177859648
H            0.96893047986485        0.12472673299738        2.85788725382482
H            1.23927431926868       -2.15663041959584       -2.40126378371253
H            1.49351255482220       -3.17073580253186       -6.38242595984566
H            2.97624214185933       -2.31205844309250       -5.88328413329503
