50
 energy: -70.895631391175 gnorm: 0.000247736330 xtb: 6.7.1 (edcfbbe)
H           -3.07632733505626       -6.67452428514631       -6.16400472319112
C           -3.15842223311213       -6.49946380081231       -5.10174705174095
C           -2.62381330557136       -5.36232324181734       -4.53726275035178
H           -2.11427839432715       -4.62818738368410       -5.14170423215329
C           -2.73879492787020       -5.14207609261521       -3.16566046502239
O           -2.14403501682258       -3.99261565515259       -2.69218602953672
C           -2.67587654506549       -3.27350022606336       -1.67279944966619
O           -3.69263223168828       -3.56821939937226       -1.09834660818645
C           -1.87829556133045       -2.06102223403166       -1.40169625124846
C           -2.43025656017347       -1.08434711756039       -0.57296237003630
H           -3.40128038544538       -1.26460848101496       -0.13712498161293
C           -1.75125661645802        0.09292205586787       -0.34234668415448
H           -2.19446890414972        0.85482400567245        0.28216564307475
C           -0.50558606868835        0.32178821840466       -0.92120154401688
C            0.20908387567960        1.61804570746771       -0.68521987472522
H            0.98672874665795        1.75574600025195       -1.43882253642371
H           -0.50268113177659        2.44208478165231       -0.77772153753303
C            0.84658109572890        1.67870141680137        0.70849714280305
H            0.07906375847699        1.50635420452315        1.46587491989122
H            1.58906910148555        0.88337855623491        0.80306383194970
C            1.50572468927450        3.03461838051571        0.94757428358386
H            2.28961549604229        3.19132815957606        0.20266766186590
H            0.76064625383023        3.82239000743794        0.81044930804295
C            2.10818621574150        3.16046091701072        2.34459588374126
H            1.32907603384541        2.99132590946379        3.09162682931763
H            2.87168982973125        2.39180203160381        2.48419158786366
C            2.72684567457459        4.53955683083206        2.56273953921954
H            3.51441442748025        4.70197518736728        1.82284381086083
H            1.96264162648637        5.30402160511259        2.40155813389637
C            3.31067716692723        4.70456342707500        3.96333248373585
H            2.52489080022565        4.53952014438307        4.70439519997550
H            4.08222580859915        3.94841889408381        4.12658228105217
C            3.91245001341296        6.09299628496110        4.16851290315664
H            4.70206052266171        6.25554350713828        3.43113248450922
H            3.14121118803980        6.84772055628766        3.99726464312879
C            4.48531164451028        6.26547511338681        5.56969795583797
H            3.70845427681430        6.12872351894709        6.31893752719622
H            5.26994387982659        5.53480587349313        5.75396935315119
H            4.90747886861346        7.26041648628220        5.69097119517699
C            0.05476678693234       -0.67252403134125       -1.71608509673020
H            1.02738732664235       -0.51264996219335       -2.15887730842982
C           -0.62128492406591       -1.85096916505027       -1.96362561392397
H           -0.18253569299881       -2.60931356235565       -2.59341739481315
C           -3.37972220589298       -6.07121719646629       -2.35416677295634
H           -3.46337222917266       -5.90299997643847       -1.29320608140721
C           -3.92110562660573       -7.20853234276102       -2.92111548632186
H           -4.42619812935803       -7.93370343001935       -2.30087268703728
C           -3.81750400906051       -7.42847777406367       -4.29408272606842
C           -4.37722543226190       -8.59208504567372       -4.86940869386067
N           -4.82926164129680       -9.53612737820031       -5.33698965188353
